V -t * -v 1.0a5 -a 0
A -t * -n 1 -p 0 -o 0x7fffffff -c 30 -a 1
A -t * -h 1 -m 1073741823 -s 0
n -t * -a 4 -s 4 -S UP -v circle -c black -i black
n -t * -a 0 -s 0 -S UP -v circle -c black -i black
n -t * -a 1 -s 1 -S UP -v circle -c black -i black
n -t * -a 2 -s 2 -S UP -v circle -c black -i black
n -t * -a 3 -s 3 -S UP -v circle -c black -i black
l -t * -s 0 -d 2 -S UP -r 1000000 -D 0.0050000000000000001 -c black
l -t * -s 1 -d 2 -S UP -r 1000000 -D 0.0050000000000000001 -c black
l -t * -s 2 -d 4 -S UP -r 5000000 -D 0.01 -c black
l -t * -s 2 -d 3 -S UP -r 5000000 -D 0.01 -c black
l -t * -s 3 -d 4 -S UP -r 500000 -D 0.014999999999999999 -c black
+ -t 0.5 -s 1 -d 2 -p tcp -e 40 -c 2 -i 0 -a 2 -x {1.0 4.0 0 ------- null}
- -t 0.5 -s 1 -d 2 -p tcp -e 40 -c 2 -i 0 -a 2 -x {1.0 4.0 0 ------- null}
h -t 0.5 -s 1 -d 2 -p tcp -e 40 -c 2 -i 0 -a 2 -x {1.0 4.0 -1 ------- null}
r -t 0.50532 -s 1 -d 2 -p tcp -e 40 -c 2 -i 0 -a 2 -x {1.0 4.0 0 ------- null}
+ -t 0.50532 -s 2 -d 4 -p tcp -e 40 -c 2 -i 0 -a 2 -x {1.0 4.0 0 ------- null}
- -t 0.50532 -s 2 -d 4 -p tcp -e 40 -c 2 -i 0 -a 2 -x {1.0 4.0 0 ------- null}
h -t 0.50532 -s 2 -d 4 -p tcp -e 40 -c 2 -i 0 -a 2 -x {1.0 4.0 -1 ------- null}
r -t 0.515384 -s 2 -d 4 -p tcp -e 40 -c 2 -i 0 -a 2 -x {1.0 4.0 0 ------- null}
+ -t 0.515384 -s 4 -d 2 -p ack -e 40 -c 2 -i 1 -a 2 -x {4.0 1.0 0 ------- null}
- -t 0.515384 -s 4 -d 2 -p ack -e 40 -c 2 -i 1 -a 2 -x {4.0 1.0 0 ------- null}
h -t 0.515384 -s 4 -d 2 -p ack -e 40 -c 2 -i 1 -a 2 -x {4.0 1.0 -1 ------- null}
r -t 0.525448 -s 4 -d 2 -p ack -e 40 -c 2 -i 1 -a 2 -x {4.0 1.0 0 ------- null}
+ -t 0.525448 -s 2 -d 1 -p ack -e 40 -c 2 -i 1 -a 2 -x {4.0 1.0 0 ------- null}
- -t 0.525448 -s 2 -d 1 -p ack -e 40 -c 2 -i 1 -a 2 -x {4.0 1.0 0 ------- null}
h -t 0.525448 -s 2 -d 1 -p ack -e 40 -c 2 -i 1 -a 2 -x {4.0 1.0 -1 ------- null}
r -t 0.530768 -s 2 -d 1 -p ack -e 40 -c 2 -i 1 -a 2 -x {4.0 1.0 0 ------- null}
+ -t 0.530768 -s 1 -d 2 -p tcp -e 1040 -c 2 -i 2 -a 2 -x {1.0 4.0 1 ------- null}
- -t 0.530768 -s 1 -d 2 -p tcp -e 1040 -c 2 -i 2 -a 2 -x {1.0 4.0 1 ------- null}
h -t 0.530768 -s 1 -d 2 -p tcp -e 1040 -c 2 -i 2 -a 2 -x {1.0 4.0 -1 ------- null}
+ -t 0.530768 -s 1 -d 2 -p tcp -e 1040 -c 2 -i 3 -a 2 -x {1.0 4.0 2 ------- null}
- -t 0.539088 -s 1 -d 2 -p tcp -e 1040 -c 2 -i 3 -a 2 -x {1.0 4.0 2 ------- null}
h -t 0.539088 -s 1 -d 2 -p tcp -e 1040 -c 2 -i 3 -a 2 -x {1.0 4.0 -1 ------- null}
r -t 0.544088 -s 1 -d 2 -p tcp -e 1040 -c 2 -i 2 -a 2 -x {1.0 4.0 1 ------- null}
+ -t 0.544088 -s 2 -d 4 -p tcp -e 1040 -c 2 -i 2 -a 2 -x {1.0 4.0 1 ------- null}
- -t 0.544088 -s 2 -d 4 -p tcp -e 1040 -c 2 -i 2 -a 2 -x {1.0 4.0 1 ------- null}
h -t 0.544088 -s 2 -d 4 -p tcp -e 1040 -c 2 -i 2 -a 2 -x {1.0 4.0 -1 ------- null}
r -t 0.552408 -s 1 -d 2 -p tcp -e 1040 -c 2 -i 3 -a 2 -x {1.0 4.0 2 ------- null}
+ -t 0.552408 -s 2 -d 4 -p tcp -e 1040 -c 2 -i 3 -a 2 -x {1.0 4.0 2 ------- null}
- -t 0.552408 -s 2 -d 4 -p tcp -e 1040 -c 2 -i 3 -a 2 -x {1.0 4.0 2 ------- null}
h -t 0.552408 -s 2 -d 4 -p tcp -e 1040 -c 2 -i 3 -a 2 -x {1.0 4.0 -1 ------- null}
r -t 0.555752 -s 2 -d 4 -p tcp -e 1040 -c 2 -i 2 -a 2 -x {1.0 4.0 1 ------- null}
+ -t 0.555752 -s 4 -d 2 -p ack -e 40 -c 2 -i 4 -a 2 -x {4.0 1.0 1 ------- null}
- -t 0.555752 -s 4 -d 2 -p ack -e 40 -c 2 -i 4 -a 2 -x {4.0 1.0 1 ------- null}
h -t 0.555752 -s 4 -d 2 -p ack -e 40 -c 2 -i 4 -a 2 -x {4.0 1.0 -1 ------- null}
r -t 0.564072 -s 2 -d 4 -p tcp -e 1040 -c 2 -i 3 -a 2 -x {1.0 4.0 2 ------- null}
+ -t 0.564072 -s 4 -d 2 -p ack -e 40 -c 2 -i 5 -a 2 -x {4.0 1.0 2 ------- null}
- -t 0.564072 -s 4 -d 2 -p ack -e 40 -c 2 -i 5 -a 2 -x {4.0 1.0 2 ------- null}
h -t 0.564072 -s 4 -d 2 -p ack -e 40 -c 2 -i 5 -a 2 -x {4.0 1.0 -1 ------- null}
r -t 0.565816 -s 4 -d 2 -p ack -e 40 -c 2 -i 4 -a 2 -x {4.0 1.0 1 ------- null}
+ -t 0.565816 -s 2 -d 1 -p ack -e 40 -c 2 -i 4 -a 2 -x {4.0 1.0 1 ------- null}
- -t 0.565816 -s 2 -d 1 -p ack -e 40 -c 2 -i 4 -a 2 -x {4.0 1.0 1 ------- null}
h -t 0.565816 -s 2 -d 1 -p ack -e 40 -c 2 -i 4 -a 2 -x {4.0 1.0 -1 ------- null}
r -t 0.571136 -s 2 -d 1 -p ack -e 40 -c 2 -i 4 -a 2 -x {4.0 1.0 1 ------- null}
+ -t 0.571136 -s 1 -d 2 -p tcp -e 1040 -c 2 -i 6 -a 2 -x {1.0 4.0 3 ------- null}
- -t 0.571136 -s 1 -d 2 -p tcp -e 1040 -c 2 -i 6 -a 2 -x {1.0 4.0 3 ------- null}
h -t 0.571136 -s 1 -d 2 -p tcp -e 1040 -c 2 -i 6 -a 2 -x {1.0 4.0 -1 ------- null}
+ -t 0.571136 -s 1 -d 2 -p tcp -e 1040 -c 2 -i 7 -a 2 -x {1.0 4.0 4 ------- null}
r -t 0.574136 -s 4 -d 2 -p ack -e 40 -c 2 -i 5 -a 2 -x {4.0 1.0 2 ------- null}
+ -t 0.574136 -s 2 -d 1 -p ack -e 40 -c 2 -i 5 -a 2 -x {4.0 1.0 2 ------- null}
- -t 0.574136 -s 2 -d 1 -p ack -e 40 -c 2 -i 5 -a 2 -x {4.0 1.0 2 ------- null}
h -t 0.574136 -s 2 -d 1 -p ack -e 40 -c 2 -i 5 -a 2 -x {4.0 1.0 -1 ------- null}
- -t 0.579456 -s 1 -d 2 -p tcp -e 1040 -c 2 -i 7 -a 2 -x {1.0 4.0 4 ------- null}
h -t 0.579456 -s 1 -d 2 -p tcp -e 1040 -c 2 -i 7 -a 2 -x {1.0 4.0 -1 ------- null}
r -t 0.579456 -s 2 -d 1 -p ack -e 40 -c 2 -i 5 -a 2 -x {4.0 1.0 2 ------- null}
+ -t 0.579456 -s 1 -d 2 -p tcp -e 1040 -c 2 -i 8 -a 2 -x {1.0 4.0 5 ------- null}
+ -t 0.579456 -s 1 -d 2 -p tcp -e 1040 -c 2 -i 9 -a 2 -x {1.0 4.0 6 ------- null}
r -t 0.584456 -s 1 -d 2 -p tcp -e 1040 -c 2 -i 6 -a 2 -x {1.0 4.0 3 ------- null}
+ -t 0.584456 -s 2 -d 4 -p tcp -e 1040 -c 2 -i 6 -a 2 -x {1.0 4.0 3 ------- null}
- -t 0.584456 -s 2 -d 4 -p tcp -e 1040 -c 2 -i 6 -a 2 -x {1.0 4.0 3 ------- null}
h -t 0.584456 -s 2 -d 4 -p tcp -e 1040 -c 2 -i 6 -a 2 -x {1.0 4.0 -1 ------- null}
- -t 0.587776 -s 1 -d 2 -p tcp -e 1040 -c 2 -i 8 -a 2 -x {1.0 4.0 5 ------- null}
h -t 0.587776 -s 1 -d 2 -p tcp -e 1040 -c 2 -i 8 -a 2 -x {1.0 4.0 -1 ------- null}
r -t 0.592776 -s 1 -d 2 -p tcp -e 1040 -c 2 -i 7 -a 2 -x {1.0 4.0 4 ------- null}
+ -t 0.592776 -s 2 -d 4 -p tcp -e 1040 -c 2 -i 7 -a 2 -x {1.0 4.0 4 ------- null}
- -t 0.592776 -s 2 -d 4 -p tcp -e 1040 -c 2 -i 7 -a 2 -x {1.0 4.0 4 ------- null}
h -t 0.592776 -s 2 -d 4 -p tcp -e 1040 -c 2 -i 7 -a 2 -x {1.0 4.0 -1 ------- null}
- -t 0.596096 -s 1 -d 2 -p tcp -e 1040 -c 2 -i 9 -a 2 -x {1.0 4.0 6 ------- null}
h -t 0.596096 -s 1 -d 2 -p tcp -e 1040 -c 2 -i 9 -a 2 -x {1.0 4.0 -1 ------- null}
r -t 0.59612 -s 2 -d 4 -p tcp -e 1040 -c 2 -i 6 -a 2 -x {1.0 4.0 3 ------- null}
+ -t 0.59612 -s 4 -d 2 -p ack -e 40 -c 2 -i 10 -a 2 -x {4.0 1.0 3 ------- null}
- -t 0.59612 -s 4 -d 2 -p ack -e 40 -c 2 -i 10 -a 2 -x {4.0 1.0 3 ------- null}
h -t 0.59612 -s 4 -d 2 -p ack -e 40 -c 2 -i 10 -a 2 -x {4.0 1.0 -1 ------- null}
r -t 0.601096 -s 1 -d 2 -p tcp -e 1040 -c 2 -i 8 -a 2 -x {1.0 4.0 5 ------- null}
+ -t 0.601096 -s 2 -d 4 -p tcp -e 1040 -c 2 -i 8 -a 2 -x {1.0 4.0 5 ------- null}
- -t 0.601096 -s 2 -d 4 -p tcp -e 1040 -c 2 -i 8 -a 2 -x {1.0 4.0 5 ------- null}
h -t 0.601096 -s 2 -d 4 -p tcp -e 1040 -c 2 -i 8 -a 2 -x {1.0 4.0 -1 ------- null}
r -t 0.60444 -s 2 -d 4 -p tcp -e 1040 -c 2 -i 7 -a 2 -x {1.0 4.0 4 ------- null}
+ -t 0.60444 -s 4 -d 2 -p ack -e 40 -c 2 -i 11 -a 2 -x {4.0 1.0 4 ------- null}
- -t 0.60444 -s 4 -d 2 -p ack -e 40 -c 2 -i 11 -a 2 -x {4.0 1.0 4 ------- null}
h -t 0.60444 -s 4 -d 2 -p ack -e 40 -c 2 -i 11 -a 2 -x {4.0 1.0 -1 ------- null}
r -t 0.606184 -s 4 -d 2 -p ack -e 40 -c 2 -i 10 -a 2 -x {4.0 1.0 3 ------- null}
+ -t 0.606184 -s 2 -d 1 -p ack -e 40 -c 2 -i 10 -a 2 -x {4.0 1.0 3 ------- null}
- -t 0.606184 -s 2 -d 1 -p ack -e 40 -c 2 -i 10 -a 2 -x {4.0 1.0 3 ------- null}
h -t 0.606184 -s 2 -d 1 -p ack -e 40 -c 2 -i 10 -a 2 -x {4.0 1.0 -1 ------- null}
r -t 0.609416 -s 1 -d 2 -p tcp -e 1040 -c 2 -i 9 -a 2 -x {1.0 4.0 6 ------- null}
+ -t 0.609416 -s 2 -d 4 -p tcp -e 1040 -c 2 -i 9 -a 2 -x {1.0 4.0 6 ------- null}
- -t 0.609416 -s 2 -d 4 -p tcp -e 1040 -c 2 -i 9 -a 2 -x {1.0 4.0 6 ------- null}
h -t 0.609416 -s 2 -d 4 -p tcp -e 1040 -c 2 -i 9 -a 2 -x {1.0 4.0 -1 ------- null}
r -t 0.611504 -s 2 -d 1 -p ack -e 40 -c 2 -i 10 -a 2 -x {4.0 1.0 3 ------- null}
+ -t 0.611504 -s 1 -d 2 -p tcp -e 1040 -c 2 -i 12 -a 2 -x {1.0 4.0 7 ------- null}
- -t 0.611504 -s 1 -d 2 -p tcp -e 1040 -c 2 -i 12 -a 2 -x {1.0 4.0 7 ------- null}
h -t 0.611504 -s 1 -d 2 -p tcp -e 1040 -c 2 -i 12 -a 2 -x {1.0 4.0 -1 ------- null}
+ -t 0.611504 -s 1 -d 2 -p tcp -e 1040 -c 2 -i 13 -a 2 -x {1.0 4.0 8 ------- null}
r -t 0.61276 -s 2 -d 4 -p tcp -e 1040 -c 2 -i 8 -a 2 -x {1.0 4.0 5 ------- null}
+ -t 0.61276 -s 4 -d 2 -p ack -e 40 -c 2 -i 14 -a 2 -x {4.0 1.0 5 ------- null}
- -t 0.61276 -s 4 -d 2 -p ack -e 40 -c 2 -i 14 -a 2 -x {4.0 1.0 5 ------- null}
h -t 0.61276 -s 4 -d 2 -p ack -e 40 -c 2 -i 14 -a 2 -x {4.0 1.0 -1 ------- null}
r -t 0.614504 -s 4 -d 2 -p ack -e 40 -c 2 -i 11 -a 2 -x {4.0 1.0 4 ------- null}
+ -t 0.614504 -s 2 -d 1 -p ack -e 40 -c 2 -i 11 -a 2 -x {4.0 1.0 4 ------- null}
- -t 0.614504 -s 2 -d 1 -p ack -e 40 -c 2 -i 11 -a 2 -x {4.0 1.0 4 ------- null}
h -t 0.614504 -s 2 -d 1 -p ack -e 40 -c 2 -i 11 -a 2 -x {4.0 1.0 -1 ------- null}
- -t 0.619824 -s 1 -d 2 -p tcp -e 1040 -c 2 -i 13 -a 2 -x {1.0 4.0 8 ------- null}
h -t 0.619824 -s 1 -d 2 -p tcp -e 1040 -c 2 -i 13 -a 2 -x {1.0 4.0 -1 ------- null}
r -t 0.619824 -s 2 -d 1 -p ack -e 40 -c 2 -i 11 -a 2 -x {4.0 1.0 4 ------- null}
+ -t 0.619824 -s 1 -d 2 -p tcp -e 1040 -c 2 -i 15 -a 2 -x {1.0 4.0 9 ------- null}
+ -t 0.619824 -s 1 -d 2 -p tcp -e 1040 -c 2 -i 16 -a 2 -x {1.0 4.0 10 ------- null}
r -t 0.62108 -s 2 -d 4 -p tcp -e 1040 -c 2 -i 9 -a 2 -x {1.0 4.0 6 ------- null}
+ -t 0.62108 -s 4 -d 2 -p ack -e 40 -c 2 -i 17 -a 2 -x {4.0 1.0 6 ------- null}
- -t 0.62108 -s 4 -d 2 -p ack -e 40 -c 2 -i 17 -a 2 -x {4.0 1.0 6 ------- null}
h -t 0.62108 -s 4 -d 2 -p ack -e 40 -c 2 -i 17 -a 2 -x {4.0 1.0 -1 ------- null}
r -t 0.622824 -s 4 -d 2 -p ack -e 40 -c 2 -i 14 -a 2 -x {4.0 1.0 5 ------- null}
+ -t 0.622824 -s 2 -d 1 -p ack -e 40 -c 2 -i 14 -a 2 -x {4.0 1.0 5 ------- null}
- -t 0.622824 -s 2 -d 1 -p ack -e 40 -c 2 -i 14 -a 2 -x {4.0 1.0 5 ------- null}
h -t 0.622824 -s 2 -d 1 -p ack -e 40 -c 2 -i 14 -a 2 -x {4.0 1.0 -1 ------- null}
r -t 0.624824 -s 1 -d 2 -p tcp -e 1040 -c 2 -i 12 -a 2 -x {1.0 4.0 7 ------- null}
+ -t 0.624824 -s 2 -d 4 -p tcp -e 1040 -c 2 -i 12 -a 2 -x {1.0 4.0 7 ------- null}
- -t 0.624824 -s 2 -d 4 -p tcp -e 1040 -c 2 -i 12 -a 2 -x {1.0 4.0 7 ------- null}
h -t 0.624824 -s 2 -d 4 -p tcp -e 1040 -c 2 -i 12 -a 2 -x {1.0 4.0 -1 ------- null}
- -t 0.628144 -s 1 -d 2 -p tcp -e 1040 -c 2 -i 15 -a 2 -x {1.0 4.0 9 ------- null}
h -t 0.628144 -s 1 -d 2 -p tcp -e 1040 -c 2 -i 15 -a 2 -x {1.0 4.0 -1 ------- null}
r -t 0.628144 -s 2 -d 1 -p ack -e 40 -c 2 -i 14 -a 2 -x {4.0 1.0 5 ------- null}
+ -t 0.628144 -s 1 -d 2 -p tcp -e 1040 -c 2 -i 18 -a 2 -x {1.0 4.0 11 ------- null}
+ -t 0.628144 -s 1 -d 2 -p tcp -e 1040 -c 2 -i 19 -a 2 -x {1.0 4.0 12 ------- null}
r -t 0.631144 -s 4 -d 2 -p ack -e 40 -c 2 -i 17 -a 2 -x {4.0 1.0 6 ------- null}
+ -t 0.631144 -s 2 -d 1 -p ack -e 40 -c 2 -i 17 -a 2 -x {4.0 1.0 6 ------- null}
- -t 0.631144 -s 2 -d 1 -p ack -e 40 -c 2 -i 17 -a 2 -x {4.0 1.0 6 ------- null}
h -t 0.631144 -s 2 -d 1 -p ack -e 40 -c 2 -i 17 -a 2 -x {4.0 1.0 -1 ------- null}
r -t 0.633144 -s 1 -d 2 -p tcp -e 1040 -c 2 -i 13 -a 2 -x {1.0 4.0 8 ------- null}
+ -t 0.633144 -s 2 -d 4 -p tcp -e 1040 -c 2 -i 13 -a 2 -x {1.0 4.0 8 ------- null}
- -t 0.633144 -s 2 -d 4 -p tcp -e 1040 -c 2 -i 13 -a 2 -x {1.0 4.0 8 ------- null}
h -t 0.633144 -s 2 -d 4 -p tcp -e 1040 -c 2 -i 13 -a 2 -x {1.0 4.0 -1 ------- null}
- -t 0.636464 -s 1 -d 2 -p tcp -e 1040 -c 2 -i 16 -a 2 -x {1.0 4.0 10 ------- null}
h -t 0.636464 -s 1 -d 2 -p tcp -e 1040 -c 2 -i 16 -a 2 -x {1.0 4.0 -1 ------- null}
r -t 0.636464 -s 2 -d 1 -p ack -e 40 -c 2 -i 17 -a 2 -x {4.0 1.0 6 ------- null}
+ -t 0.636464 -s 1 -d 2 -p tcp -e 1040 -c 2 -i 20 -a 2 -x {1.0 4.0 13 ------- null}
+ -t 0.636464 -s 1 -d 2 -p tcp -e 1040 -c 2 -i 21 -a 2 -x {1.0 4.0 14 ------- null}
r -t 0.636488 -s 2 -d 4 -p tcp -e 1040 -c 2 -i 12 -a 2 -x {1.0 4.0 7 ------- null}
+ -t 0.636488 -s 4 -d 2 -p ack -e 40 -c 2 -i 22 -a 2 -x {4.0 1.0 7 ------- null}
- -t 0.636488 -s 4 -d 2 -p ack -e 40 -c 2 -i 22 -a 2 -x {4.0 1.0 7 ------- null}
h -t 0.636488 -s 4 -d 2 -p ack -e 40 -c 2 -i 22 -a 2 -x {4.0 1.0 -1 ------- null}
r -t 0.641464 -s 1 -d 2 -p tcp -e 1040 -c 2 -i 15 -a 2 -x {1.0 4.0 9 ------- null}
+ -t 0.641464 -s 2 -d 4 -p tcp -e 1040 -c 2 -i 15 -a 2 -x {1.0 4.0 9 ------- null}
- -t 0.641464 -s 2 -d 4 -p tcp -e 1040 -c 2 -i 15 -a 2 -x {1.0 4.0 9 ------- null}
h -t 0.641464 -s 2 -d 4 -p tcp -e 1040 -c 2 -i 15 -a 2 -x {1.0 4.0 -1 ------- null}
- -t 0.644784 -s 1 -d 2 -p tcp -e 1040 -c 2 -i 18 -a 2 -x {1.0 4.0 11 ------- null}
h -t 0.644784 -s 1 -d 2 -p tcp -e 1040 -c 2 -i 18 -a 2 -x {1.0 4.0 -1 ------- null}
r -t 0.644808 -s 2 -d 4 -p tcp -e 1040 -c 2 -i 13 -a 2 -x {1.0 4.0 8 ------- null}
+ -t 0.644808 -s 4 -d 2 -p ack -e 40 -c 2 -i 23 -a 2 -x {4.0 1.0 8 ------- null}
- -t 0.644808 -s 4 -d 2 -p ack -e 40 -c 2 -i 23 -a 2 -x {4.0 1.0 8 ------- null}
h -t 0.644808 -s 4 -d 2 -p ack -e 40 -c 2 -i 23 -a 2 -x {4.0 1.0 -1 ------- null}
r -t 0.646552 -s 4 -d 2 -p ack -e 40 -c 2 -i 22 -a 2 -x {4.0 1.0 7 ------- null}
+ -t 0.646552 -s 2 -d 1 -p ack -e 40 -c 2 -i 22 -a 2 -x {4.0 1.0 7 ------- null}
- -t 0.646552 -s 2 -d 1 -p ack -e 40 -c 2 -i 22 -a 2 -x {4.0 1.0 7 ------- null}
h -t 0.646552 -s 2 -d 1 -p ack -e 40 -c 2 -i 22 -a 2 -x {4.0 1.0 -1 ------- null}
r -t 0.649784 -s 1 -d 2 -p tcp -e 1040 -c 2 -i 16 -a 2 -x {1.0 4.0 10 ------- null}
+ -t 0.649784 -s 2 -d 4 -p tcp -e 1040 -c 2 -i 16 -a 2 -x {1.0 4.0 10 ------- null}
- -t 0.649784 -s 2 -d 4 -p tcp -e 1040 -c 2 -i 16 -a 2 -x {1.0 4.0 10 ------- null}
h -t 0.649784 -s 2 -d 4 -p tcp -e 1040 -c 2 -i 16 -a 2 -x {1.0 4.0 -1 ------- null}
r -t 0.651872 -s 2 -d 1 -p ack -e 40 -c 2 -i 22 -a 2 -x {4.0 1.0 7 ------- null}
+ -t 0.651872 -s 1 -d 2 -p tcp -e 1040 -c 2 -i 24 -a 2 -x {1.0 4.0 15 ------- null}
+ -t 0.651872 -s 1 -d 2 -p tcp -e 1040 -c 2 -i 25 -a 2 -x {1.0 4.0 16 ------- null}
- -t 0.653104 -s 1 -d 2 -p tcp -e 1040 -c 2 -i 19 -a 2 -x {1.0 4.0 12 ------- null}
h -t 0.653104 -s 1 -d 2 -p tcp -e 1040 -c 2 -i 19 -a 2 -x {1.0 4.0 -1 ------- null}
r -t 0.653128 -s 2 -d 4 -p tcp -e 1040 -c 2 -i 15 -a 2 -x {1.0 4.0 9 ------- null}
+ -t 0.653128 -s 4 -d 2 -p ack -e 40 -c 2 -i 26 -a 2 -x {4.0 1.0 9 ------- null}
- -t 0.653128 -s 4 -d 2 -p ack -e 40 -c 2 -i 26 -a 2 -x {4.0 1.0 9 ------- null}
h -t 0.653128 -s 4 -d 2 -p ack -e 40 -c 2 -i 26 -a 2 -x {4.0 1.0 -1 ------- null}
r -t 0.654872 -s 4 -d 2 -p ack -e 40 -c 2 -i 23 -a 2 -x {4.0 1.0 8 ------- null}
+ -t 0.654872 -s 2 -d 1 -p ack -e 40 -c 2 -i 23 -a 2 -x {4.0 1.0 8 ------- null}
- -t 0.654872 -s 2 -d 1 -p ack -e 40 -c 2 -i 23 -a 2 -x {4.0 1.0 8 ------- null}
h -t 0.654872 -s 2 -d 1 -p ack -e 40 -c 2 -i 23 -a 2 -x {4.0 1.0 -1 ------- null}
r -t 0.658104 -s 1 -d 2 -p tcp -e 1040 -c 2 -i 18 -a 2 -x {1.0 4.0 11 ------- null}
+ -t 0.658104 -s 2 -d 4 -p tcp -e 1040 -c 2 -i 18 -a 2 -x {1.0 4.0 11 ------- null}
- -t 0.658104 -s 2 -d 4 -p tcp -e 1040 -c 2 -i 18 -a 2 -x {1.0 4.0 11 ------- null}
h -t 0.658104 -s 2 -d 4 -p tcp -e 1040 -c 2 -i 18 -a 2 -x {1.0 4.0 -1 ------- null}
r -t 0.660192 -s 2 -d 1 -p ack -e 40 -c 2 -i 23 -a 2 -x {4.0 1.0 8 ------- null}
+ -t 0.660192 -s 1 -d 2 -p tcp -e 1040 -c 2 -i 27 -a 2 -x {1.0 4.0 17 ------- null}
+ -t 0.660192 -s 1 -d 2 -p tcp -e 1040 -c 2 -i 28 -a 2 -x {1.0 4.0 18 ------- null}
- -t 0.661424 -s 1 -d 2 -p tcp -e 1040 -c 2 -i 20 -a 2 -x {1.0 4.0 13 ------- null}
h -t 0.661424 -s 1 -d 2 -p tcp -e 1040 -c 2 -i 20 -a 2 -x {1.0 4.0 -1 ------- null}
r -t 0.661448 -s 2 -d 4 -p tcp -e 1040 -c 2 -i 16 -a 2 -x {1.0 4.0 10 ------- null}
+ -t 0.661448 -s 4 -d 2 -p ack -e 40 -c 2 -i 29 -a 2 -x {4.0 1.0 10 ------- null}
- -t 0.661448 -s 4 -d 2 -p ack -e 40 -c 2 -i 29 -a 2 -x {4.0 1.0 10 ------- null}
h -t 0.661448 -s 4 -d 2 -p ack -e 40 -c 2 -i 29 -a 2 -x {4.0 1.0 -1 ------- null}
r -t 0.663192 -s 4 -d 2 -p ack -e 40 -c 2 -i 26 -a 2 -x {4.0 1.0 9 ------- null}
+ -t 0.663192 -s 2 -d 1 -p ack -e 40 -c 2 -i 26 -a 2 -x {4.0 1.0 9 ------- null}
- -t 0.663192 -s 2 -d 1 -p ack -e 40 -c 2 -i 26 -a 2 -x {4.0 1.0 9 ------- null}
h -t 0.663192 -s 2 -d 1 -p ack -e 40 -c 2 -i 26 -a 2 -x {4.0 1.0 -1 ------- null}
r -t 0.666424 -s 1 -d 2 -p tcp -e 1040 -c 2 -i 19 -a 2 -x {1.0 4.0 12 ------- null}
+ -t 0.666424 -s 2 -d 4 -p tcp -e 1040 -c 2 -i 19 -a 2 -x {1.0 4.0 12 ------- null}
- -t 0.666424 -s 2 -d 4 -p tcp -e 1040 -c 2 -i 19 -a 2 -x {1.0 4.0 12 ------- null}
h -t 0.666424 -s 2 -d 4 -p tcp -e 1040 -c 2 -i 19 -a 2 -x {1.0 4.0 -1 ------- null}
r -t 0.668512 -s 2 -d 1 -p ack -e 40 -c 2 -i 26 -a 2 -x {4.0 1.0 9 ------- null}
+ -t 0.668512 -s 1 -d 2 -p tcp -e 1040 -c 2 -i 30 -a 2 -x {1.0 4.0 19 ------- null}
+ -t 0.668512 -s 1 -d 2 -p tcp -e 1040 -c 2 -i 31 -a 2 -x {1.0 4.0 20 ------- null}
- -t 0.669744 -s 1 -d 2 -p tcp -e 1040 -c 2 -i 21 -a 2 -x {1.0 4.0 14 ------- null}
h -t 0.669744 -s 1 -d 2 -p tcp -e 1040 -c 2 -i 21 -a 2 -x {1.0 4.0 -1 ------- null}
r -t 0.669768 -s 2 -d 4 -p tcp -e 1040 -c 2 -i 18 -a 2 -x {1.0 4.0 11 ------- null}
+ -t 0.669768 -s 4 -d 2 -p ack -e 40 -c 2 -i 32 -a 2 -x {4.0 1.0 11 ------- null}
- -t 0.669768 -s 4 -d 2 -p ack -e 40 -c 2 -i 32 -a 2 -x {4.0 1.0 11 ------- null}
h -t 0.669768 -s 4 -d 2 -p ack -e 40 -c 2 -i 32 -a 2 -x {4.0 1.0 -1 ------- null}
r -t 0.671512 -s 4 -d 2 -p ack -e 40 -c 2 -i 29 -a 2 -x {4.0 1.0 10 ------- null}
+ -t 0.671512 -s 2 -d 1 -p ack -e 40 -c 2 -i 29 -a 2 -x {4.0 1.0 10 ------- null}
- -t 0.671512 -s 2 -d 1 -p ack -e 40 -c 2 -i 29 -a 2 -x {4.0 1.0 10 ------- null}
h -t 0.671512 -s 2 -d 1 -p ack -e 40 -c 2 -i 29 -a 2 -x {4.0 1.0 -1 ------- null}
r -t 0.674744 -s 1 -d 2 -p tcp -e 1040 -c 2 -i 20 -a 2 -x {1.0 4.0 13 ------- null}
+ -t 0.674744 -s 2 -d 4 -p tcp -e 1040 -c 2 -i 20 -a 2 -x {1.0 4.0 13 ------- null}
- -t 0.674744 -s 2 -d 4 -p tcp -e 1040 -c 2 -i 20 -a 2 -x {1.0 4.0 13 ------- null}
h -t 0.674744 -s 2 -d 4 -p tcp -e 1040 -c 2 -i 20 -a 2 -x {1.0 4.0 -1 ------- null}
r -t 0.676832 -s 2 -d 1 -p ack -e 40 -c 2 -i 29 -a 2 -x {4.0 1.0 10 ------- null}
+ -t 0.676832 -s 1 -d 2 -p tcp -e 1040 -c 2 -i 33 -a 2 -x {1.0 4.0 21 ------- null}
+ -t 0.676832 -s 1 -d 2 -p tcp -e 1040 -c 2 -i 34 -a 2 -x {1.0 4.0 22 ------- null}
- -t 0.678064 -s 1 -d 2 -p tcp -e 1040 -c 2 -i 24 -a 2 -x {1.0 4.0 15 ------- null}
h -t 0.678064 -s 1 -d 2 -p tcp -e 1040 -c 2 -i 24 -a 2 -x {1.0 4.0 -1 ------- null}
r -t 0.678088 -s 2 -d 4 -p tcp -e 1040 -c 2 -i 19 -a 2 -x {1.0 4.0 12 ------- null}
+ -t 0.678088 -s 4 -d 2 -p ack -e 40 -c 2 -i 35 -a 2 -x {4.0 1.0 12 ------- null}
- -t 0.678088 -s 4 -d 2 -p ack -e 40 -c 2 -i 35 -a 2 -x {4.0 1.0 12 ------- null}
h -t 0.678088 -s 4 -d 2 -p ack -e 40 -c 2 -i 35 -a 2 -x {4.0 1.0 -1 ------- null}
r -t 0.679832 -s 4 -d 2 -p ack -e 40 -c 2 -i 32 -a 2 -x {4.0 1.0 11 ------- null}
+ -t 0.679832 -s 2 -d 1 -p ack -e 40 -c 2 -i 32 -a 2 -x {4.0 1.0 11 ------- null}
- -t 0.679832 -s 2 -d 1 -p ack -e 40 -c 2 -i 32 -a 2 -x {4.0 1.0 11 ------- null}
h -t 0.679832 -s 2 -d 1 -p ack -e 40 -c 2 -i 32 -a 2 -x {4.0 1.0 -1 ------- null}
r -t 0.683064 -s 1 -d 2 -p tcp -e 1040 -c 2 -i 21 -a 2 -x {1.0 4.0 14 ------- null}
+ -t 0.683064 -s 2 -d 4 -p tcp -e 1040 -c 2 -i 21 -a 2 -x {1.0 4.0 14 ------- null}
- -t 0.683064 -s 2 -d 4 -p tcp -e 1040 -c 2 -i 21 -a 2 -x {1.0 4.0 14 ------- null}
h -t 0.683064 -s 2 -d 4 -p tcp -e 1040 -c 2 -i 21 -a 2 -x {1.0 4.0 -1 ------- null}
r -t 0.685152 -s 2 -d 1 -p ack -e 40 -c 2 -i 32 -a 2 -x {4.0 1.0 11 ------- null}
+ -t 0.685152 -s 1 -d 2 -p tcp -e 1040 -c 2 -i 36 -a 2 -x {1.0 4.0 23 ------- null}
+ -t 0.685152 -s 1 -d 2 -p tcp -e 1040 -c 2 -i 37 -a 2 -x {1.0 4.0 24 ------- null}
- -t 0.686384 -s 1 -d 2 -p tcp -e 1040 -c 2 -i 25 -a 2 -x {1.0 4.0 16 ------- null}
h -t 0.686384 -s 1 -d 2 -p tcp -e 1040 -c 2 -i 25 -a 2 -x {1.0 4.0 -1 ------- null}
r -t 0.686408 -s 2 -d 4 -p tcp -e 1040 -c 2 -i 20 -a 2 -x {1.0 4.0 13 ------- null}
+ -t 0.686408 -s 4 -d 2 -p ack -e 40 -c 2 -i 38 -a 2 -x {4.0 1.0 13 ------- null}
- -t 0.686408 -s 4 -d 2 -p ack -e 40 -c 2 -i 38 -a 2 -x {4.0 1.0 13 ------- null}
h -t 0.686408 -s 4 -d 2 -p ack -e 40 -c 2 -i 38 -a 2 -x {4.0 1.0 -1 ------- null}
r -t 0.688152 -s 4 -d 2 -p ack -e 40 -c 2 -i 35 -a 2 -x {4.0 1.0 12 ------- null}
+ -t 0.688152 -s 2 -d 1 -p ack -e 40 -c 2 -i 35 -a 2 -x {4.0 1.0 12 ------- null}
- -t 0.688152 -s 2 -d 1 -p ack -e 40 -c 2 -i 35 -a 2 -x {4.0 1.0 12 ------- null}
h -t 0.688152 -s 2 -d 1 -p ack -e 40 -c 2 -i 35 -a 2 -x {4.0 1.0 -1 ------- null}
r -t 0.691384 -s 1 -d 2 -p tcp -e 1040 -c 2 -i 24 -a 2 -x {1.0 4.0 15 ------- null}
+ -t 0.691384 -s 2 -d 4 -p tcp -e 1040 -c 2 -i 24 -a 2 -x {1.0 4.0 15 ------- null}
- -t 0.691384 -s 2 -d 4 -p tcp -e 1040 -c 2 -i 24 -a 2 -x {1.0 4.0 15 ------- null}
h -t 0.691384 -s 2 -d 4 -p tcp -e 1040 -c 2 -i 24 -a 2 -x {1.0 4.0 -1 ------- null}
r -t 0.693472 -s 2 -d 1 -p ack -e 40 -c 2 -i 35 -a 2 -x {4.0 1.0 12 ------- null}
+ -t 0.693472 -s 1 -d 2 -p tcp -e 1040 -c 2 -i 39 -a 2 -x {1.0 4.0 25 ------- null}
+ -t 0.693472 -s 1 -d 2 -p tcp -e 1040 -c 2 -i 40 -a 2 -x {1.0 4.0 26 ------- null}
- -t 0.694704 -s 1 -d 2 -p tcp -e 1040 -c 2 -i 27 -a 2 -x {1.0 4.0 17 ------- null}
h -t 0.694704 -s 1 -d 2 -p tcp -e 1040 -c 2 -i 27 -a 2 -x {1.0 4.0 -1 ------- null}
r -t 0.694728 -s 2 -d 4 -p tcp -e 1040 -c 2 -i 21 -a 2 -x {1.0 4.0 14 ------- null}
+ -t 0.694728 -s 4 -d 2 -p ack -e 40 -c 2 -i 41 -a 2 -x {4.0 1.0 14 ------- null}
- -t 0.694728 -s 4 -d 2 -p ack -e 40 -c 2 -i 41 -a 2 -x {4.0 1.0 14 ------- null}
h -t 0.694728 -s 4 -d 2 -p ack -e 40 -c 2 -i 41 -a 2 -x {4.0 1.0 -1 ------- null}
r -t 0.696472 -s 4 -d 2 -p ack -e 40 -c 2 -i 38 -a 2 -x {4.0 1.0 13 ------- null}
+ -t 0.696472 -s 2 -d 1 -p ack -e 40 -c 2 -i 38 -a 2 -x {4.0 1.0 13 ------- null}
- -t 0.696472 -s 2 -d 1 -p ack -e 40 -c 2 -i 38 -a 2 -x {4.0 1.0 13 ------- null}
h -t 0.696472 -s 2 -d 1 -p ack -e 40 -c 2 -i 38 -a 2 -x {4.0 1.0 -1 ------- null}
r -t 0.699704 -s 1 -d 2 -p tcp -e 1040 -c 2 -i 25 -a 2 -x {1.0 4.0 16 ------- null}
+ -t 0.699704 -s 2 -d 4 -p tcp -e 1040 -c 2 -i 25 -a 2 -x {1.0 4.0 16 ------- null}
- -t 0.699704 -s 2 -d 4 -p tcp -e 1040 -c 2 -i 25 -a 2 -x {1.0 4.0 16 ------- null}
h -t 0.699704 -s 2 -d 4 -p tcp -e 1040 -c 2 -i 25 -a 2 -x {1.0 4.0 -1 ------- null}
r -t 0.701792 -s 2 -d 1 -p ack -e 40 -c 2 -i 38 -a 2 -x {4.0 1.0 13 ------- null}
+ -t 0.701792 -s 1 -d 2 -p tcp -e 1040 -c 2 -i 42 -a 2 -x {1.0 4.0 27 ------- null}
+ -t 0.701792 -s 1 -d 2 -p tcp -e 1040 -c 2 -i 43 -a 2 -x {1.0 4.0 28 ------- null}
- -t 0.703024 -s 1 -d 2 -p tcp -e 1040 -c 2 -i 28 -a 2 -x {1.0 4.0 18 ------- null}
h -t 0.703024 -s 1 -d 2 -p tcp -e 1040 -c 2 -i 28 -a 2 -x {1.0 4.0 -1 ------- null}
r -t 0.703048 -s 2 -d 4 -p tcp -e 1040 -c 2 -i 24 -a 2 -x {1.0 4.0 15 ------- null}
+ -t 0.703048 -s 4 -d 2 -p ack -e 40 -c 2 -i 44 -a 2 -x {4.0 1.0 15 ------- null}
- -t 0.703048 -s 4 -d 2 -p ack -e 40 -c 2 -i 44 -a 2 -x {4.0 1.0 15 ------- null}
h -t 0.703048 -s 4 -d 2 -p ack -e 40 -c 2 -i 44 -a 2 -x {4.0 1.0 -1 ------- null}
r -t 0.704792 -s 4 -d 2 -p ack -e 40 -c 2 -i 41 -a 2 -x {4.0 1.0 14 ------- null}
+ -t 0.704792 -s 2 -d 1 -p ack -e 40 -c 2 -i 41 -a 2 -x {4.0 1.0 14 ------- null}
- -t 0.704792 -s 2 -d 1 -p ack -e 40 -c 2 -i 41 -a 2 -x {4.0 1.0 14 ------- null}
h -t 0.704792 -s 2 -d 1 -p ack -e 40 -c 2 -i 41 -a 2 -x {4.0 1.0 -1 ------- null}
r -t 0.708024 -s 1 -d 2 -p tcp -e 1040 -c 2 -i 27 -a 2 -x {1.0 4.0 17 ------- null}
+ -t 0.708024 -s 2 -d 4 -p tcp -e 1040 -c 2 -i 27 -a 2 -x {1.0 4.0 17 ------- null}
- -t 0.708024 -s 2 -d 4 -p tcp -e 1040 -c 2 -i 27 -a 2 -x {1.0 4.0 17 ------- null}
h -t 0.708024 -s 2 -d 4 -p tcp -e 1040 -c 2 -i 27 -a 2 -x {1.0 4.0 -1 ------- null}
r -t 0.710112 -s 2 -d 1 -p ack -e 40 -c 2 -i 41 -a 2 -x {4.0 1.0 14 ------- null}
+ -t 0.710112 -s 1 -d 2 -p tcp -e 1040 -c 2 -i 45 -a 2 -x {1.0 4.0 29 ------- null}
+ -t 0.710112 -s 1 -d 2 -p tcp -e 1040 -c 2 -i 46 -a 2 -x {1.0 4.0 30 ------- null}
- -t 0.711344 -s 1 -d 2 -p tcp -e 1040 -c 2 -i 30 -a 2 -x {1.0 4.0 19 ------- null}
h -t 0.711344 -s 1 -d 2 -p tcp -e 1040 -c 2 -i 30 -a 2 -x {1.0 4.0 -1 ------- null}
r -t 0.711368 -s 2 -d 4 -p tcp -e 1040 -c 2 -i 25 -a 2 -x {1.0 4.0 16 ------- null}
+ -t 0.711368 -s 4 -d 2 -p ack -e 40 -c 2 -i 47 -a 2 -x {4.0 1.0 16 ------- null}
- -t 0.711368 -s 4 -d 2 -p ack -e 40 -c 2 -i 47 -a 2 -x {4.0 1.0 16 ------- null}
h -t 0.711368 -s 4 -d 2 -p ack -e 40 -c 2 -i 47 -a 2 -x {4.0 1.0 -1 ------- null}
r -t 0.713112 -s 4 -d 2 -p ack -e 40 -c 2 -i 44 -a 2 -x {4.0 1.0 15 ------- null}
+ -t 0.713112 -s 2 -d 1 -p ack -e 40 -c 2 -i 44 -a 2 -x {4.0 1.0 15 ------- null}
- -t 0.713112 -s 2 -d 1 -p ack -e 40 -c 2 -i 44 -a 2 -x {4.0 1.0 15 ------- null}
h -t 0.713112 -s 2 -d 1 -p ack -e 40 -c 2 -i 44 -a 2 -x {4.0 1.0 -1 ------- null}
r -t 0.716344 -s 1 -d 2 -p tcp -e 1040 -c 2 -i 28 -a 2 -x {1.0 4.0 18 ------- null}
+ -t 0.716344 -s 2 -d 4 -p tcp -e 1040 -c 2 -i 28 -a 2 -x {1.0 4.0 18 ------- null}
- -t 0.716344 -s 2 -d 4 -p tcp -e 1040 -c 2 -i 28 -a 2 -x {1.0 4.0 18 ------- null}
h -t 0.716344 -s 2 -d 4 -p tcp -e 1040 -c 2 -i 28 -a 2 -x {1.0 4.0 -1 ------- null}
r -t 0.718432 -s 2 -d 1 -p ack -e 40 -c 2 -i 44 -a 2 -x {4.0 1.0 15 ------- null}
+ -t 0.718432 -s 1 -d 2 -p tcp -e 1040 -c 2 -i 48 -a 2 -x {1.0 4.0 31 ------- null}
+ -t 0.718432 -s 1 -d 2 -p tcp -e 1040 -c 2 -i 49 -a 2 -x {1.0 4.0 32 ------- null}
- -t 0.719664 -s 1 -d 2 -p tcp -e 1040 -c 2 -i 31 -a 2 -x {1.0 4.0 20 ------- null}
h -t 0.719664 -s 1 -d 2 -p tcp -e 1040 -c 2 -i 31 -a 2 -x {1.0 4.0 -1 ------- null}
r -t 0.719688 -s 2 -d 4 -p tcp -e 1040 -c 2 -i 27 -a 2 -x {1.0 4.0 17 ------- null}
+ -t 0.719688 -s 4 -d 2 -p ack -e 40 -c 2 -i 50 -a 2 -x {4.0 1.0 17 ------- null}
- -t 0.719688 -s 4 -d 2 -p ack -e 40 -c 2 -i 50 -a 2 -x {4.0 1.0 17 ------- null}
h -t 0.719688 -s 4 -d 2 -p ack -e 40 -c 2 -i 50 -a 2 -x {4.0 1.0 -1 ------- null}
r -t 0.721432 -s 4 -d 2 -p ack -e 40 -c 2 -i 47 -a 2 -x {4.0 1.0 16 ------- null}
+ -t 0.721432 -s 2 -d 1 -p ack -e 40 -c 2 -i 47 -a 2 -x {4.0 1.0 16 ------- null}
- -t 0.721432 -s 2 -d 1 -p ack -e 40 -c 2 -i 47 -a 2 -x {4.0 1.0 16 ------- null}
h -t 0.721432 -s 2 -d 1 -p ack -e 40 -c 2 -i 47 -a 2 -x {4.0 1.0 -1 ------- null}
r -t 0.724664 -s 1 -d 2 -p tcp -e 1040 -c 2 -i 30 -a 2 -x {1.0 4.0 19 ------- null}
+ -t 0.724664 -s 2 -d 4 -p tcp -e 1040 -c 2 -i 30 -a 2 -x {1.0 4.0 19 ------- null}
- -t 0.724664 -s 2 -d 4 -p tcp -e 1040 -c 2 -i 30 -a 2 -x {1.0 4.0 19 ------- null}
h -t 0.724664 -s 2 -d 4 -p tcp -e 1040 -c 2 -i 30 -a 2 -x {1.0 4.0 -1 ------- null}
r -t 0.726752 -s 2 -d 1 -p ack -e 40 -c 2 -i 47 -a 2 -x {4.0 1.0 16 ------- null}
+ -t 0.726752 -s 1 -d 2 -p tcp -e 1040 -c 2 -i 51 -a 2 -x {1.0 4.0 33 ------- null}
+ -t 0.726752 -s 1 -d 2 -p tcp -e 1040 -c 2 -i 52 -a 2 -x {1.0 4.0 34 ------- null}
- -t 0.727984 -s 1 -d 2 -p tcp -e 1040 -c 2 -i 33 -a 2 -x {1.0 4.0 21 ------- null}
h -t 0.727984 -s 1 -d 2 -p tcp -e 1040 -c 2 -i 33 -a 2 -x {1.0 4.0 -1 ------- null}
r -t 0.728008 -s 2 -d 4 -p tcp -e 1040 -c 2 -i 28 -a 2 -x {1.0 4.0 18 ------- null}
+ -t 0.728008 -s 4 -d 2 -p ack -e 40 -c 2 -i 53 -a 2 -x {4.0 1.0 18 ------- null}
- -t 0.728008 -s 4 -d 2 -p ack -e 40 -c 2 -i 53 -a 2 -x {4.0 1.0 18 ------- null}
h -t 0.728008 -s 4 -d 2 -p ack -e 40 -c 2 -i 53 -a 2 -x {4.0 1.0 -1 ------- null}
r -t 0.729752 -s 4 -d 2 -p ack -e 40 -c 2 -i 50 -a 2 -x {4.0 1.0 17 ------- null}
+ -t 0.729752 -s 2 -d 1 -p ack -e 40 -c 2 -i 50 -a 2 -x {4.0 1.0 17 ------- null}
- -t 0.729752 -s 2 -d 1 -p ack -e 40 -c 2 -i 50 -a 2 -x {4.0 1.0 17 ------- null}
h -t 0.729752 -s 2 -d 1 -p ack -e 40 -c 2 -i 50 -a 2 -x {4.0 1.0 -1 ------- null}
r -t 0.732984 -s 1 -d 2 -p tcp -e 1040 -c 2 -i 31 -a 2 -x {1.0 4.0 20 ------- null}
+ -t 0.732984 -s 2 -d 4 -p tcp -e 1040 -c 2 -i 31 -a 2 -x {1.0 4.0 20 ------- null}
- -t 0.732984 -s 2 -d 4 -p tcp -e 1040 -c 2 -i 31 -a 2 -x {1.0 4.0 20 ------- null}
h -t 0.732984 -s 2 -d 4 -p tcp -e 1040 -c 2 -i 31 -a 2 -x {1.0 4.0 -1 ------- null}
r -t 0.735072 -s 2 -d 1 -p ack -e 40 -c 2 -i 50 -a 2 -x {4.0 1.0 17 ------- null}
+ -t 0.735072 -s 1 -d 2 -p tcp -e 1040 -c 2 -i 54 -a 2 -x {1.0 4.0 35 ------- null}
+ -t 0.735072 -s 1 -d 2 -p tcp -e 1040 -c 2 -i 55 -a 2 -x {1.0 4.0 36 ------- null}
- -t 0.736304 -s 1 -d 2 -p tcp -e 1040 -c 2 -i 34 -a 2 -x {1.0 4.0 22 ------- null}
h -t 0.736304 -s 1 -d 2 -p tcp -e 1040 -c 2 -i 34 -a 2 -x {1.0 4.0 -1 ------- null}
r -t 0.736328 -s 2 -d 4 -p tcp -e 1040 -c 2 -i 30 -a 2 -x {1.0 4.0 19 ------- null}
+ -t 0.736328 -s 4 -d 2 -p ack -e 40 -c 2 -i 56 -a 2 -x {4.0 1.0 19 ------- null}
- -t 0.736328 -s 4 -d 2 -p ack -e 40 -c 2 -i 56 -a 2 -x {4.0 1.0 19 ------- null}
h -t 0.736328 -s 4 -d 2 -p ack -e 40 -c 2 -i 56 -a 2 -x {4.0 1.0 -1 ------- null}
r -t 0.738072 -s 4 -d 2 -p ack -e 40 -c 2 -i 53 -a 2 -x {4.0 1.0 18 ------- null}
+ -t 0.738072 -s 2 -d 1 -p ack -e 40 -c 2 -i 53 -a 2 -x {4.0 1.0 18 ------- null}
- -t 0.738072 -s 2 -d 1 -p ack -e 40 -c 2 -i 53 -a 2 -x {4.0 1.0 18 ------- null}
h -t 0.738072 -s 2 -d 1 -p ack -e 40 -c 2 -i 53 -a 2 -x {4.0 1.0 -1 ------- null}
r -t 0.741304 -s 1 -d 2 -p tcp -e 1040 -c 2 -i 33 -a 2 -x {1.0 4.0 21 ------- null}
+ -t 0.741304 -s 2 -d 4 -p tcp -e 1040 -c 2 -i 33 -a 2 -x {1.0 4.0 21 ------- null}
- -t 0.741304 -s 2 -d 4 -p tcp -e 1040 -c 2 -i 33 -a 2 -x {1.0 4.0 21 ------- null}
h -t 0.741304 -s 2 -d 4 -p tcp -e 1040 -c 2 -i 33 -a 2 -x {1.0 4.0 -1 ------- null}
r -t 0.743392 -s 2 -d 1 -p ack -e 40 -c 2 -i 53 -a 2 -x {4.0 1.0 18 ------- null}
+ -t 0.743392 -s 1 -d 2 -p tcp -e 1040 -c 2 -i 57 -a 2 -x {1.0 4.0 37 ------- null}
+ -t 0.743392 -s 1 -d 2 -p tcp -e 1040 -c 2 -i 58 -a 2 -x {1.0 4.0 38 ------- null}
- -t 0.744624 -s 1 -d 2 -p tcp -e 1040 -c 2 -i 36 -a 2 -x {1.0 4.0 23 ------- null}
h -t 0.744624 -s 1 -d 2 -p tcp -e 1040 -c 2 -i 36 -a 2 -x {1.0 4.0 -1 ------- null}
r -t 0.744648 -s 2 -d 4 -p tcp -e 1040 -c 2 -i 31 -a 2 -x {1.0 4.0 20 ------- null}
+ -t 0.744648 -s 4 -d 2 -p ack -e 40 -c 2 -i 59 -a 2 -x {4.0 1.0 20 ------- null}
- -t 0.744648 -s 4 -d 2 -p ack -e 40 -c 2 -i 59 -a 2 -x {4.0 1.0 20 ------- null}
h -t 0.744648 -s 4 -d 2 -p ack -e 40 -c 2 -i 59 -a 2 -x {4.0 1.0 -1 ------- null}
r -t 0.746392 -s 4 -d 2 -p ack -e 40 -c 2 -i 56 -a 2 -x {4.0 1.0 19 ------- null}
+ -t 0.746392 -s 2 -d 1 -p ack -e 40 -c 2 -i 56 -a 2 -x {4.0 1.0 19 ------- null}