+ 0.5 1 2 tcp 40 ------- 2 1.0 4.0 0 0
- 0.5 1 2 tcp 40 ------- 2 1.0 4.0 0 0
r 0.50532 1 2 tcp 40 ------- 2 1.0 4.0 0 0
+ 0.50532 2 4 tcp 40 ------- 2 1.0 4.0 0 0
- 0.50532 2 4 tcp 40 ------- 2 1.0 4.0 0 0
r 0.515384 2 4 tcp 40 ------- 2 1.0 4.0 0 0
+ 0.515384 4 2 ack 40 ------- 2 4.0 1.0 0 1
- 0.515384 4 2 ack 40 ------- 2 4.0 1.0 0 1
r 0.525448 4 2 ack 40 ------- 2 4.0 1.0 0 1
+ 0.525448 2 1 ack 40 ------- 2 4.0 1.0 0 1
- 0.525448 2 1 ack 40 ------- 2 4.0 1.0 0 1
r 0.530768 2 1 ack 40 ------- 2 4.0 1.0 0 1
+ 0.530768 1 2 tcp 1040 ------- 2 1.0 4.0 1 2
- 0.530768 1 2 tcp 1040 ------- 2 1.0 4.0 1 2
+ 0.530768 1 2 tcp 1040 ------- 2 1.0 4.0 2 3
- 0.539088 1 2 tcp 1040 ------- 2 1.0 4.0 2 3
r 0.544088 1 2 tcp 1040 ------- 2 1.0 4.0 1 2
+ 0.544088 2 4 tcp 1040 ------- 2 1.0 4.0 1 2
- 0.544088 2 4 tcp 1040 ------- 2 1.0 4.0 1 2
r 0.552408 1 2 tcp 1040 ------- 2 1.0 4.0 2 3
+ 0.552408 2 4 tcp 1040 ------- 2 1.0 4.0 2 3
- 0.552408 2 4 tcp 1040 ------- 2 1.0 4.0 2 3
r 0.555752 2 4 tcp 1040 ------- 2 1.0 4.0 1 2
+ 0.555752 4 2 ack 40 ------- 2 4.0 1.0 1 4
- 0.555752 4 2 ack 40 ------- 2 4.0 1.0 1 4
r 0.564072 2 4 tcp 1040 ------- 2 1.0 4.0 2 3
+ 0.564072 4 2 ack 40 ------- 2 4.0 1.0 2 5
- 0.564072 4 2 ack 40 ------- 2 4.0 1.0 2 5
r 0.565816 4 2 ack 40 ------- 2 4.0 1.0 1 4
+ 0.565816 2 1 ack 40 ------- 2 4.0 1.0 1 4
- 0.565816 2 1 ack 40 ------- 2 4.0 1.0 1 4
r 0.571136 2 1 ack 40 ------- 2 4.0 1.0 1 4
+ 0.571136 1 2 tcp 1040 ------- 2 1.0 4.0 3 6
- 0.571136 1 2 tcp 1040 ------- 2 1.0 4.0 3 6
+ 0.571136 1 2 tcp 1040 ------- 2 1.0 4.0 4 7
r 0.574136 4 2 ack 40 ------- 2 4.0 1.0 2 5
+ 0.574136 2 1 ack 40 ------- 2 4.0 1.0 2 5
- 0.574136 2 1 ack 40 ------- 2 4.0 1.0 2 5
- 0.579456 1 2 tcp 1040 ------- 2 1.0 4.0 4 7
r 0.579456 2 1 ack 40 ------- 2 4.0 1.0 2 5
+ 0.579456 1 2 tcp 1040 ------- 2 1.0 4.0 5 8
+ 0.579456 1 2 tcp 1040 ------- 2 1.0 4.0 6 9
r 0.584456 1 2 tcp 1040 ------- 2 1.0 4.0 3 6
+ 0.584456 2 4 tcp 1040 ------- 2 1.0 4.0 3 6
- 0.584456 2 4 tcp 1040 ------- 2 1.0 4.0 3 6
- 0.587776 1 2 tcp 1040 ------- 2 1.0 4.0 5 8
r 0.592776 1 2 tcp 1040 ------- 2 1.0 4.0 4 7
+ 0.592776 2 4 tcp 1040 ------- 2 1.0 4.0 4 7
- 0.592776 2 4 tcp 1040 ------- 2 1.0 4.0 4 7
- 0.596096 1 2 tcp 1040 ------- 2 1.0 4.0 6 9
r 0.59612 2 4 tcp 1040 ------- 2 1.0 4.0 3 6
+ 0.59612 4 2 ack 40 ------- 2 4.0 1.0 3 10
- 0.59612 4 2 ack 40 ------- 2 4.0 1.0 3 10
r 0.601096 1 2 tcp 1040 ------- 2 1.0 4.0 5 8
+ 0.601096 2 4 tcp 1040 ------- 2 1.0 4.0 5 8
- 0.601096 2 4 tcp 1040 ------- 2 1.0 4.0 5 8
r 0.60444 2 4 tcp 1040 ------- 2 1.0 4.0 4 7
+ 0.60444 4 2 ack 40 ------- 2 4.0 1.0 4 11
- 0.60444 4 2 ack 40 ------- 2 4.0 1.0 4 11
r 0.606184 4 2 ack 40 ------- 2 4.0 1.0 3 10
+ 0.606184 2 1 ack 40 ------- 2 4.0 1.0 3 10
- 0.606184 2 1 ack 40 ------- 2 4.0 1.0 3 10
r 0.609416 1 2 tcp 1040 ------- 2 1.0 4.0 6 9
+ 0.609416 2 4 tcp 1040 ------- 2 1.0 4.0 6 9
- 0.609416 2 4 tcp 1040 ------- 2 1.0 4.0 6 9
r 0.611504 2 1 ack 40 ------- 2 4.0 1.0 3 10
+ 0.611504 1 2 tcp 1040 ------- 2 1.0 4.0 7 12
- 0.611504 1 2 tcp 1040 ------- 2 1.0 4.0 7 12
+ 0.611504 1 2 tcp 1040 ------- 2 1.0 4.0 8 13
r 0.61276 2 4 tcp 1040 ------- 2 1.0 4.0 5 8
+ 0.61276 4 2 ack 40 ------- 2 4.0 1.0 5 14
- 0.61276 4 2 ack 40 ------- 2 4.0 1.0 5 14
r 0.614504 4 2 ack 40 ------- 2 4.0 1.0 4 11
+ 0.614504 2 1 ack 40 ------- 2 4.0 1.0 4 11
- 0.614504 2 1 ack 40 ------- 2 4.0 1.0 4 11
- 0.619824 1 2 tcp 1040 ------- 2 1.0 4.0 8 13
r 0.619824 2 1 ack 40 ------- 2 4.0 1.0 4 11
+ 0.619824 1 2 tcp 1040 ------- 2 1.0 4.0 9 15
+ 0.619824 1 2 tcp 1040 ------- 2 1.0 4.0 10 16
r 0.62108 2 4 tcp 1040 ------- 2 1.0 4.0 6 9
+ 0.62108 4 2 ack 40 ------- 2 4.0 1.0 6 17
- 0.62108 4 2 ack 40 ------- 2 4.0 1.0 6 17
r 0.622824 4 2 ack 40 ------- 2 4.0 1.0 5 14
+ 0.622824 2 1 ack 40 ------- 2 4.0 1.0 5 14
- 0.622824 2 1 ack 40 ------- 2 4.0 1.0 5 14
r 0.624824 1 2 tcp 1040 ------- 2 1.0 4.0 7 12
+ 0.624824 2 4 tcp 1040 ------- 2 1.0 4.0 7 12
- 0.624824 2 4 tcp 1040 ------- 2 1.0 4.0 7 12
- 0.628144 1 2 tcp 1040 ------- 2 1.0 4.0 9 15
r 0.628144 2 1 ack 40 ------- 2 4.0 1.0 5 14
+ 0.628144 1 2 tcp 1040 ------- 2 1.0 4.0 11 18
+ 0.628144 1 2 tcp 1040 ------- 2 1.0 4.0 12 19
r 0.631144 4 2 ack 40 ------- 2 4.0 1.0 6 17
+ 0.631144 2 1 ack 40 ------- 2 4.0 1.0 6 17
- 0.631144 2 1 ack 40 ------- 2 4.0 1.0 6 17
r 0.633144 1 2 tcp 1040 ------- 2 1.0 4.0 8 13
+ 0.633144 2 4 tcp 1040 ------- 2 1.0 4.0 8 13
- 0.633144 2 4 tcp 1040 ------- 2 1.0 4.0 8 13
- 0.636464 1 2 tcp 1040 ------- 2 1.0 4.0 10 16
r 0.636464 2 1 ack 40 ------- 2 4.0 1.0 6 17
+ 0.636464 1 2 tcp 1040 ------- 2 1.0 4.0 13 20
+ 0.636464 1 2 tcp 1040 ------- 2 1.0 4.0 14 21
r 0.636488 2 4 tcp 1040 ------- 2 1.0 4.0 7 12
+ 0.636488 4 2 ack 40 ------- 2 4.0 1.0 7 22
- 0.636488 4 2 ack 40 ------- 2 4.0 1.0 7 22
r 0.641464 1 2 tcp 1040 ------- 2 1.0 4.0 9 15
+ 0.641464 2 4 tcp 1040 ------- 2 1.0 4.0 9 15
- 0.641464 2 4 tcp 1040 ------- 2 1.0 4.0 9 15
- 0.644784 1 2 tcp 1040 ------- 2 1.0 4.0 11 18
r 0.644808 2 4 tcp 1040 ------- 2 1.0 4.0 8 13
+ 0.644808 4 2 ack 40 ------- 2 4.0 1.0 8 23
- 0.644808 4 2 ack 40 ------- 2 4.0 1.0 8 23
r 0.646552 4 2 ack 40 ------- 2 4.0 1.0 7 22
+ 0.646552 2 1 ack 40 ------- 2 4.0 1.0 7 22
- 0.646552 2 1 ack 40 ------- 2 4.0 1.0 7 22
r 0.649784 1 2 tcp 1040 ------- 2 1.0 4.0 10 16
+ 0.649784 2 4 tcp 1040 ------- 2 1.0 4.0 10 16
- 0.649784 2 4 tcp 1040 ------- 2 1.0 4.0 10 16
r 0.651872 2 1 ack 40 ------- 2 4.0 1.0 7 22
+ 0.651872 1 2 tcp 1040 ------- 2 1.0 4.0 15 24
+ 0.651872 1 2 tcp 1040 ------- 2 1.0 4.0 16 25
- 0.653104 1 2 tcp 1040 ------- 2 1.0 4.0 12 19
r 0.653128 2 4 tcp 1040 ------- 2 1.0 4.0 9 15
+ 0.653128 4 2 ack 40 ------- 2 4.0 1.0 9 26
- 0.653128 4 2 ack 40 ------- 2 4.0 1.0 9 26
r 0.654872 4 2 ack 40 ------- 2 4.0 1.0 8 23
+ 0.654872 2 1 ack 40 ------- 2 4.0 1.0 8 23
- 0.654872 2 1 ack 40 ------- 2 4.0 1.0 8 23
r 0.658104 1 2 tcp 1040 ------- 2 1.0 4.0 11 18
+ 0.658104 2 4 tcp 1040 ------- 2 1.0 4.0 11 18
- 0.658104 2 4 tcp 1040 ------- 2 1.0 4.0 11 18
r 0.660192 2 1 ack 40 ------- 2 4.0 1.0 8 23
+ 0.660192 1 2 tcp 1040 ------- 2 1.0 4.0 17 27
+ 0.660192 1 2 tcp 1040 ------- 2 1.0 4.0 18 28
- 0.661424 1 2 tcp 1040 ------- 2 1.0 4.0 13 20
r 0.661448 2 4 tcp 1040 ------- 2 1.0 4.0 10 16
+ 0.661448 4 2 ack 40 ------- 2 4.0 1.0 10 29
- 0.661448 4 2 ack 40 ------- 2 4.0 1.0 10 29
r 0.663192 4 2 ack 40 ------- 2 4.0 1.0 9 26
+ 0.663192 2 1 ack 40 ------- 2 4.0 1.0 9 26
- 0.663192 2 1 ack 40 ------- 2 4.0 1.0 9 26
r 0.666424 1 2 tcp 1040 ------- 2 1.0 4.0 12 19
+ 0.666424 2 4 tcp 1040 ------- 2 1.0 4.0 12 19
- 0.666424 2 4 tcp 1040 ------- 2 1.0 4.0 12 19
r 0.668512 2 1 ack 40 ------- 2 4.0 1.0 9 26
+ 0.668512 1 2 tcp 1040 ------- 2 1.0 4.0 19 30
+ 0.668512 1 2 tcp 1040 ------- 2 1.0 4.0 20 31
- 0.669744 1 2 tcp 1040 ------- 2 1.0 4.0 14 21
r 0.669768 2 4 tcp 1040 ------- 2 1.0 4.0 11 18
+ 0.669768 4 2 ack 40 ------- 2 4.0 1.0 11 32
- 0.669768 4 2 ack 40 ------- 2 4.0 1.0 11 32
r 0.671512 4 2 ack 40 ------- 2 4.0 1.0 10 29
+ 0.671512 2 1 ack 40 ------- 2 4.0 1.0 10 29
- 0.671512 2 1 ack 40 ------- 2 4.0 1.0 10 29
r 0.674744 1 2 tcp 1040 ------- 2 1.0 4.0 13 20
+ 0.674744 2 4 tcp 1040 ------- 2 1.0 4.0 13 20
- 0.674744 2 4 tcp 1040 ------- 2 1.0 4.0 13 20
r 0.676832 2 1 ack 40 ------- 2 4.0 1.0 10 29
+ 0.676832 1 2 tcp 1040 ------- 2 1.0 4.0 21 33
+ 0.676832 1 2 tcp 1040 ------- 2 1.0 4.0 22 34
- 0.678064 1 2 tcp 1040 ------- 2 1.0 4.0 15 24
r 0.678088 2 4 tcp 1040 ------- 2 1.0 4.0 12 19
+ 0.678088 4 2 ack 40 ------- 2 4.0 1.0 12 35
- 0.678088 4 2 ack 40 ------- 2 4.0 1.0 12 35
r 0.679832 4 2 ack 40 ------- 2 4.0 1.0 11 32
+ 0.679832 2 1 ack 40 ------- 2 4.0 1.0 11 32
- 0.679832 2 1 ack 40 ------- 2 4.0 1.0 11 32
r 0.683064 1 2 tcp 1040 ------- 2 1.0 4.0 14 21
+ 0.683064 2 4 tcp 1040 ------- 2 1.0 4.0 14 21
- 0.683064 2 4 tcp 1040 ------- 2 1.0 4.0 14 21
r 0.685152 2 1 ack 40 ------- 2 4.0 1.0 11 32
+ 0.685152 1 2 tcp 1040 ------- 2 1.0 4.0 23 36
+ 0.685152 1 2 tcp 1040 ------- 2 1.0 4.0 24 37
- 0.686384 1 2 tcp 1040 ------- 2 1.0 4.0 16 25
r 0.686408 2 4 tcp 1040 ------- 2 1.0 4.0 13 20
+ 0.686408 4 2 ack 40 ------- 2 4.0 1.0 13 38
- 0.686408 4 2 ack 40 ------- 2 4.0 1.0 13 38
r 0.688152 4 2 ack 40 ------- 2 4.0 1.0 12 35
+ 0.688152 2 1 ack 40 ------- 2 4.0 1.0 12 35
- 0.688152 2 1 ack 40 ------- 2 4.0 1.0 12 35
r 0.691384 1 2 tcp 1040 ------- 2 1.0 4.0 15 24
+ 0.691384 2 4 tcp 1040 ------- 2 1.0 4.0 15 24
- 0.691384 2 4 tcp 1040 ------- 2 1.0 4.0 15 24
r 0.693472 2 1 ack 40 ------- 2 4.0 1.0 12 35
+ 0.693472 1 2 tcp 1040 ------- 2 1.0 4.0 25 39
+ 0.693472 1 2 tcp 1040 ------- 2 1.0 4.0 26 40
- 0.694704 1 2 tcp 1040 ------- 2 1.0 4.0 17 27
r 0.694728 2 4 tcp 1040 ------- 2 1.0 4.0 14 21
+ 0.694728 4 2 ack 40 ------- 2 4.0 1.0 14 41
- 0.694728 4 2 ack 40 ------- 2 4.0 1.0 14 41
r 0.696472 4 2 ack 40 ------- 2 4.0 1.0 13 38
+ 0.696472 2 1 ack 40 ------- 2 4.0 1.0 13 38
- 0.696472 2 1 ack 40 ------- 2 4.0 1.0 13 38
r 0.699704 1 2 tcp 1040 ------- 2 1.0 4.0 16 25
+ 0.699704 2 4 tcp 1040 ------- 2 1.0 4.0 16 25
- 0.699704 2 4 tcp 1040 ------- 2 1.0 4.0 16 25
r 0.701792 2 1 ack 40 ------- 2 4.0 1.0 13 38
+ 0.701792 1 2 tcp 1040 ------- 2 1.0 4.0 27 42
+ 0.701792 1 2 tcp 1040 ------- 2 1.0 4.0 28 43
- 0.703024 1 2 tcp 1040 ------- 2 1.0 4.0 18 28
r 0.703048 2 4 tcp 1040 ------- 2 1.0 4.0 15 24
+ 0.703048 4 2 ack 40 ------- 2 4.0 1.0 15 44
- 0.703048 4 2 ack 40 ------- 2 4.0 1.0 15 44
r 0.704792 4 2 ack 40 ------- 2 4.0 1.0 14 41
+ 0.704792 2 1 ack 40 ------- 2 4.0 1.0 14 41
- 0.704792 2 1 ack 40 ------- 2 4.0 1.0 14 41
r 0.708024 1 2 tcp 1040 ------- 2 1.0 4.0 17 27
+ 0.708024 2 4 tcp 1040 ------- 2 1.0 4.0 17 27
- 0.708024 2 4 tcp 1040 ------- 2 1.0 4.0 17 27
r 0.710112 2 1 ack 40 ------- 2 4.0 1.0 14 41
+ 0.710112 1 2 tcp 1040 ------- 2 1.0 4.0 29 45
+ 0.710112 1 2 tcp 1040 ------- 2 1.0 4.0 30 46
- 0.711344 1 2 tcp 1040 ------- 2 1.0 4.0 19 30
r 0.711368 2 4 tcp 1040 ------- 2 1.0 4.0 16 25
+ 0.711368 4 2 ack 40 ------- 2 4.0 1.0 16 47
- 0.711368 4 2 ack 40 ------- 2 4.0 1.0 16 47
r 0.713112 4 2 ack 40 ------- 2 4.0 1.0 15 44
+ 0.713112 2 1 ack 40 ------- 2 4.0 1.0 15 44
- 0.713112 2 1 ack 40 ------- 2 4.0 1.0 15 44
r 0.716344 1 2 tcp 1040 ------- 2 1.0 4.0 18 28
+ 0.716344 2 4 tcp 1040 ------- 2 1.0 4.0 18 28
- 0.716344 2 4 tcp 1040 ------- 2 1.0 4.0 18 28
r 0.718432 2 1 ack 40 ------- 2 4.0 1.0 15 44
+ 0.718432 1 2 tcp 1040 ------- 2 1.0 4.0 31 48
+ 0.718432 1 2 tcp 1040 ------- 2 1.0 4.0 32 49
- 0.719664 1 2 tcp 1040 ------- 2 1.0 4.0 20 31
r 0.719688 2 4 tcp 1040 ------- 2 1.0 4.0 17 27
+ 0.719688 4 2 ack 40 ------- 2 4.0 1.0 17 50
- 0.719688 4 2 ack 40 ------- 2 4.0 1.0 17 50
r 0.721432 4 2 ack 40 ------- 2 4.0 1.0 16 47
+ 0.721432 2 1 ack 40 ------- 2 4.0 1.0 16 47
- 0.721432 2 1 ack 40 ------- 2 4.0 1.0 16 47
r 0.724664 1 2 tcp 1040 ------- 2 1.0 4.0 19 30
+ 0.724664 2 4 tcp 1040 ------- 2 1.0 4.0 19 30
- 0.724664 2 4 tcp 1040 ------- 2 1.0 4.0 19 30
r 0.726752 2 1 ack 40 ------- 2 4.0 1.0 16 47
+ 0.726752 1 2 tcp 1040 ------- 2 1.0 4.0 33 51
+ 0.726752 1 2 tcp 1040 ------- 2 1.0 4.0 34 52
- 0.727984 1 2 tcp 1040 ------- 2 1.0 4.0 21 33
r 0.728008 2 4 tcp 1040 ------- 2 1.0 4.0 18 28
+ 0.728008 4 2 ack 40 ------- 2 4.0 1.0 18 53
- 0.728008 4 2 ack 40 ------- 2 4.0 1.0 18 53
r 0.729752 4 2 ack 40 ------- 2 4.0 1.0 17 50
+ 0.729752 2 1 ack 40 ------- 2 4.0 1.0 17 50
- 0.729752 2 1 ack 40 ------- 2 4.0 1.0 17 50
r 0.732984 1 2 tcp 1040 ------- 2 1.0 4.0 20 31
+ 0.732984 2 4 tcp 1040 ------- 2 1.0 4.0 20 31
- 0.732984 2 4 tcp 1040 ------- 2 1.0 4.0 20 31
r 0.735072 2 1 ack 40 ------- 2 4.0 1.0 17 50
+ 0.735072 1 2 tcp 1040 ------- 2 1.0 4.0 35 54
+ 0.735072 1 2 tcp 1040 ------- 2 1.0 4.0 36 55
- 0.736304 1 2 tcp 1040 ------- 2 1.0 4.0 22 34
r 0.736328 2 4 tcp 1040 ------- 2 1.0 4.0 19 30
+ 0.736328 4 2 ack 40 ------- 2 4.0 1.0 19 56
- 0.736328 4 2 ack 40 ------- 2 4.0 1.0 19 56
r 0.738072 4 2 ack 40 ------- 2 4.0 1.0 18 53
+ 0.738072 2 1 ack 40 ------- 2 4.0 1.0 18 53
- 0.738072 2 1 ack 40 ------- 2 4.0 1.0 18 53
r 0.741304 1 2 tcp 1040 ------- 2 1.0 4.0 21 33
+ 0.741304 2 4 tcp 1040 ------- 2 1.0 4.0 21 33
- 0.741304 2 4 tcp 1040 ------- 2 1.0 4.0 21 33
r 0.743392 2 1 ack 40 ------- 2 4.0 1.0 18 53
+ 0.743392 1 2 tcp 1040 ------- 2 1.0 4.0 37 57
+ 0.743392 1 2 tcp 1040 ------- 2 1.0 4.0 38 58
- 0.744624 1 2 tcp 1040 ------- 2 1.0 4.0 23 36
r 0.744648 2 4 tcp 1040 ------- 2 1.0 4.0 20 31
+ 0.744648 4 2 ack 40 ------- 2 4.0 1.0 20 59
- 0.744648 4 2 ack 40 ------- 2 4.0 1.0 20 59
r 0.746392 4 2 ack 40 ------- 2 4.0 1.0 19 56
+ 0.746392 2 1 ack 40 ------- 2 4.0 1.0 19 56
- 0.746392 2 1 ack 40 ------- 2 4.0 1.0 19 56
r 0.749624 1 2 tcp 1040 ------- 2 1.0 4.0 22 34
+ 0.749624 2 4 tcp 1040 ------- 2 1.0 4.0 22 34
- 0.749624 2 4 tcp 1040 ------- 2 1.0 4.0 22 34
r 0.751712 2 1 ack 40 ------- 2 4.0 1.0 19 56
+ 0.751712 1 2 tcp 1040 ------- 2 1.0 4.0 39 60
- 0.752944 1 2 tcp 1040 ------- 2 1.0 4.0 24 37
r 0.752968 2 4 tcp 1040 ------- 2 1.0 4.0 21 33
+ 0.752968 4 2 ack 40 ------- 2 4.0 1.0 21 61
- 0.752968 4 2 ack 40 ------- 2 4.0 1.0 21 61
r 0.754712 4 2 ack 40 ------- 2 4.0 1.0 20 59
+ 0.754712 2 1 ack 40 ------- 2 4.0 1.0 20 59
- 0.754712 2 1 ack 40 ------- 2 4.0 1.0 20 59
r 0.757944 1 2 tcp 1040 ------- 2 1.0 4.0 23 36
+ 0.757944 2 4 tcp 1040 ------- 2 1.0 4.0 23 36
- 0.757944 2 4 tcp 1040 ------- 2 1.0 4.0 23 36
r 0.760032 2 1 ack 40 ------- 2 4.0 1.0 20 59
+ 0.760032 1 2 tcp 1040 ------- 2 1.0 4.0 40 62
- 0.761264 1 2 tcp 1040 ------- 2 1.0 4.0 25 39
r 0.761288 2 4 tcp 1040 ------- 2 1.0 4.0 22 34
+ 0.761288 4 2 ack 40 ------- 2 4.0 1.0 22 63
- 0.761288 4 2 ack 40 ------- 2 4.0 1.0 22 63
r 0.763032 4 2 ack 40 ------- 2 4.0 1.0 21 61
+ 0.763032 2 1 ack 40 ------- 2 4.0 1.0 21 61
- 0.763032 2 1 ack 40 ------- 2 4.0 1.0 21 61
r 0.766264 1 2 tcp 1040 ------- 2 1.0 4.0 24 37
+ 0.766264 2 4 tcp 1040 ------- 2 1.0 4.0 24 37
- 0.766264 2 4 tcp 1040 ------- 2 1.0 4.0 24 37
r 0.768352 2 1 ack 40 ------- 2 4.0 1.0 21 61
+ 0.768352 1 2 tcp 1040 ------- 2 1.0 4.0 41 64
- 0.769584 1 2 tcp 1040 ------- 2 1.0 4.0 26 40
r 0.769608 2 4 tcp 1040 ------- 2 1.0 4.0 23 36
+ 0.769608 4 2 ack 40 ------- 2 4.0 1.0 23 65
- 0.769608 4 2 ack 40 ------- 2 4.0 1.0 23 65
r 0.771352 4 2 ack 40 ------- 2 4.0 1.0 22 63
+ 0.771352 2 1 ack 40 ------- 2 4.0 1.0 22 63
- 0.771352 2 1 ack 40 ------- 2 4.0 1.0 22 63
r 0.774584 1 2 tcp 1040 ------- 2 1.0 4.0 25 39
+ 0.774584 2 4 tcp 1040 ------- 2 1.0 4.0 25 39
- 0.774584 2 4 tcp 1040 ------- 2 1.0 4.0 25 39
r 0.776672 2 1 ack 40 ------- 2 4.0 1.0 22 63
+ 0.776672 1 2 tcp 1040 ------- 2 1.0 4.0 42 66
- 0.777904 1 2 tcp 1040 ------- 2 1.0 4.0 27 42
r 0.777928 2 4 tcp 1040 ------- 2 1.0 4.0 24 37
+ 0.777928 4 2 ack 40 ------- 2 4.0 1.0 24 67
- 0.777928 4 2 ack 40 ------- 2 4.0 1.0 24 67
r 0.779672 4 2 ack 40 ------- 2 4.0 1.0 23 65
+ 0.779672 2 1 ack 40 ------- 2 4.0 1.0 23 65
- 0.779672 2 1 ack 40 ------- 2 4.0 1.0 23 65
r 0.782904 1 2 tcp 1040 ------- 2 1.0 4.0 26 40
+ 0.782904 2 4 tcp 1040 ------- 2 1.0 4.0 26 40
- 0.782904 2 4 tcp 1040 ------- 2 1.0 4.0 26 40
r 0.784992 2 1 ack 40 ------- 2 4.0 1.0 23 65
+ 0.784992 1 2 tcp 1040 ------- 2 1.0 4.0 43 68
- 0.786224 1 2 tcp 1040 ------- 2 1.0 4.0 28 43
r 0.786248 2 4 tcp 1040 ------- 2 1.0 4.0 25 39
+ 0.786248 4 2 ack 40 ------- 2 4.0 1.0 25 69
- 0.786248 4 2 ack 40 ------- 2 4.0 1.0 25 69
r 0.787992 4 2 ack 40 ------- 2 4.0 1.0 24 67
+ 0.787992 2 1 ack 40 ------- 2 4.0 1.0 24 67
- 0.787992 2 1 ack 40 ------- 2 4.0 1.0 24 67
r 0.791224 1 2 tcp 1040 ------- 2 1.0 4.0 27 42
+ 0.791224 2 4 tcp 1040 ------- 2 1.0 4.0 27 42
- 0.791224 2 4 tcp 1040 ------- 2 1.0 4.0 27 42
r 0.793312 2 1 ack 40 ------- 2 4.0 1.0 24 67
+ 0.793312 1 2 tcp 1040 ------- 2 1.0 4.0 44 70
- 0.794544 1 2 tcp 1040 ------- 2 1.0 4.0 29 45
r 0.794568 2 4 tcp 1040 ------- 2 1.0 4.0 26 40
+ 0.794568 4 2 ack 40 ------- 2 4.0 1.0 26 71
- 0.794568 4 2 ack 40 ------- 2 4.0 1.0 26 71
r 0.796312 4 2 ack 40 ------- 2 4.0 1.0 25 69
+ 0.796312 2 1 ack 40 ------- 2 4.0 1.0 25 69
- 0.796312 2 1 ack 40 ------- 2 4.0 1.0 25 69
r 0.799544 1 2 tcp 1040 ------- 2 1.0 4.0 28 43
+ 0.799544 2 4 tcp 1040 ------- 2 1.0 4.0 28 43
- 0.799544 2 4 tcp 1040 ------- 2 1.0 4.0 28 43
r 0.801632 2 1 ack 40 ------- 2 4.0 1.0 25 69
+ 0.801632 1 2 tcp 1040 ------- 2 1.0 4.0 45 72
- 0.802864 1 2 tcp 1040 ------- 2 1.0 4.0 30 46
r 0.802888 2 4 tcp 1040 ------- 2 1.0 4.0 27 42
+ 0.802888 4 2 ack 40 ------- 2 4.0 1.0 27 73
- 0.802888 4 2 ack 40 ------- 2 4.0 1.0 27 73
r 0.804632 4 2 ack 40 ------- 2 4.0 1.0 26 71
+ 0.804632 2 1 ack 40 ------- 2 4.0 1.0 26 71
- 0.804632 2 1 ack 40 ------- 2 4.0 1.0 26 71
r 0.807864 1 2 tcp 1040 ------- 2 1.0 4.0 29 45
+ 0.807864 2 4 tcp 1040 ------- 2 1.0 4.0 29 45
- 0.807864 2 4 tcp 1040 ------- 2 1.0 4.0 29 45
r 0.809952 2 1 ack 40 ------- 2 4.0 1.0 26 71
+ 0.809952 1 2 tcp 1040 ------- 2 1.0 4.0 46 74
- 0.811184 1 2 tcp 1040 ------- 2 1.0 4.0 31 48
r 0.811208 2 4 tcp 1040 ------- 2 1.0 4.0 28 43
+ 0.811208 4 2 ack 40 ------- 2 4.0 1.0 28 75
- 0.811208 4 2 ack 40 ------- 2 4.0 1.0 28 75
r 0.812952 4 2 ack 40 ------- 2 4.0 1.0 27 73
+ 0.812952 2 1 ack 40 ------- 2 4.0 1.0 27 73
- 0.812952 2 1 ack 40 ------- 2 4.0 1.0 27 73
r 0.816184 1 2 tcp 1040 ------- 2 1.0 4.0 30 46
+ 0.816184 2 4 tcp 1040 ------- 2 1.0 4.0 30 46
- 0.816184 2 4 tcp 1040 ------- 2 1.0 4.0 30 46
r 0.818272 2 1 ack 40 ------- 2 4.0 1.0 27 73
+ 0.818272 1 2 tcp 1040 ------- 2 1.0 4.0 47 76
- 0.819504 1 2 tcp 1040 ------- 2 1.0 4.0 32 49
r 0.819528 2 4 tcp 1040 ------- 2 1.0 4.0 29 45
+ 0.819528 4 2 ack 40 ------- 2 4.0 1.0 29 77
- 0.819528 4 2 ack 40 ------- 2 4.0 1.0 29 77
r 0.821272 4 2 ack 40 ------- 2 4.0 1.0 28 75
+ 0.821272 2 1 ack 40 ------- 2 4.0 1.0 28 75
- 0.821272 2 1 ack 40 ------- 2 4.0 1.0 28 75
r 0.824504 1 2 tcp 1040 ------- 2 1.0 4.0 31 48
+ 0.824504 2 4 tcp 1040 ------- 2 1.0 4.0 31 48
- 0.824504 2 4 tcp 1040 ------- 2 1.0 4.0 31 48
r 0.826592 2 1 ack 40 ------- 2 4.0 1.0 28 75
+ 0.826592 1 2 tcp 1040 ------- 2 1.0 4.0 48 78
- 0.827824 1 2 tcp 1040 ------- 2 1.0 4.0 33 51
r 0.827848 2 4 tcp 1040 ------- 2 1.0 4.0 30 46
+ 0.827848 4 2 ack 40 ------- 2 4.0 1.0 30 79
- 0.827848 4 2 ack 40 ------- 2 4.0 1.0 30 79
r 0.829592 4 2 ack 40 ------- 2 4.0 1.0 29 77
+ 0.829592 2 1 ack 40 ------- 2 4.0 1.0 29 77
- 0.829592 2 1 ack 40 ------- 2 4.0 1.0 29 77
r 0.832824 1 2 tcp 1040 ------- 2 1.0 4.0 32 49
+ 0.832824 2 4 tcp 1040 ------- 2 1.0 4.0 32 49
- 0.832824 2 4 tcp 1040 ------- 2 1.0 4.0 32 49
r 0.834912 2 1 ack 40 ------- 2 4.0 1.0 29 77
+ 0.834912 1 2 tcp 1040 ------- 2 1.0 4.0 49 80
- 0.836144 1 2 tcp 1040 ------- 2 1.0 4.0 34 52
r 0.836168 2 4 tcp 1040 ------- 2 1.0 4.0 31 48
+ 0.836168 4 2 ack 40 ------- 2 4.0 1.0 31 81
- 0.836168 4 2 ack 40 ------- 2 4.0 1.0 31 81
r 0.837912 4 2 ack 40 ------- 2 4.0 1.0 30 79
+ 0.837912 2 1 ack 40 ------- 2 4.0 1.0 30 79
- 0.837912 2 1 ack 40 ------- 2 4.0 1.0 30 79
r 0.841144 1 2 tcp 1040 ------- 2 1.0 4.0 33 51
+ 0.841144 2 4 tcp 1040 ------- 2 1.0 4.0 33 51
- 0.841144 2 4 tcp 1040 ------- 2 1.0 4.0 33 51
r 0.843232 2 1 ack 40 ------- 2 4.0 1.0 30 79
+ 0.843232 1 2 tcp 1040 ------- 2 1.0 4.0 50 82
- 0.844464 1 2 tcp 1040 ------- 2 1.0 4.0 35 54
r 0.844488 2 4 tcp 1040 ------- 2 1.0 4.0 32 49
+ 0.844488 4 2 ack 40 ------- 2 4.0 1.0 32 83
- 0.844488 4 2 ack 40 ------- 2 4.0 1.0 32 83
r 0.846232 4 2 ack 40 ------- 2 4.0 1.0 31 81
+ 0.846232 2 1 ack 40 ------- 2 4.0 1.0 31 81
- 0.846232 2 1 ack 40 ------- 2 4.0 1.0 31 81
r 0.849464 1 2 tcp 1040 ------- 2 1.0 4.0 34 52
+ 0.849464 2 4 tcp 1040 ------- 2 1.0 4.0 34 52
- 0.849464 2 4 tcp 1040 ------- 2 1.0 4.0 34 52
r 0.851552 2 1 ack 40 ------- 2 4.0 1.0 31 81
+ 0.851552 1 2 tcp 1040 ------- 2 1.0 4.0 51 84
- 0.852784 1 2 tcp 1040 ------- 2 1.0 4.0 36 55
r 0.852808 2 4 tcp 1040 ------- 2 1.0 4.0 33 51
+ 0.852808 4 2 ack 40 ------- 2 4.0 1.0 33 85
- 0.852808 4 2 ack 40 ------- 2 4.0 1.0 33 85
r 0.854552 4 2 ack 40 ------- 2 4.0 1.0 32 83
+ 0.854552 2 1 ack 40 ------- 2 4.0 1.0 32 83
- 0.854552 2 1 ack 40 ------- 2 4.0 1.0 32 83
r 0.857784 1 2 tcp 1040 ------- 2 1.0 4.0 35 54
+ 0.857784 2 4 tcp 1040 ------- 2 1.0 4.0 35 54
- 0.857784 2 4 tcp 1040 ------- 2 1.0 4.0 35 54
r 0.859872 2 1 ack 40 ------- 2 4.0 1.0 32 83
+ 0.859872 1 2 tcp 1040 ------- 2 1.0 4.0 52 86
- 0.861104 1 2 tcp 1040 ------- 2 1.0 4.0 37 57
r 0.861128 2 4 tcp 1040 ------- 2 1.0 4.0 34 52
+ 0.861128 4 2 ack 40 ------- 2 4.0 1.0 34 87
- 0.861128 4 2 ack 40 ------- 2 4.0 1.0 34 87
r 0.862872 4 2 ack 40 ------- 2 4.0 1.0 33 85
+ 0.862872 2 1 ack 40 ------- 2 4.0 1.0 33 85
- 0.862872 2 1 ack 40 ------- 2 4.0 1.0 33 85
r 0.866104 1 2 tcp 1040 ------- 2 1.0 4.0 36 55
+ 0.866104 2 4 tcp 1040 ------- 2 1.0 4.0 36 55
- 0.866104 2 4 tcp 1040 ------- 2 1.0 4.0 36 55
r 0.868192 2 1 ack 40 ------- 2 4.0 1.0 33 85
+ 0.868192 1 2 tcp 1040 ------- 2 1.0 4.0 53 88
- 0.869424 1 2 tcp 1040 ------- 2 1.0 4.0 38 58
r 0.869448 2 4 tcp 1040 ------- 2 1.0 4.0 35 54
+ 0.869448 4 2 ack 40 ------- 2 4.0 1.0 35 89
- 0.869448 4 2 ack 40 ------- 2 4.0 1.0 35 89
r 0.871192 4 2 ack 40 ------- 2 4.0 1.0 34 87
+ 0.871192 2 1 ack 40 ------- 2 4.0 1.0 34 87
- 0.871192 2 1 ack 40 ------- 2 4.0 1.0 34 87
r 0.874424 1 2 tcp 1040 ------- 2 1.0 4.0 37 57
+ 0.874424 2 4 tcp 1040 ------- 2 1.0 4.0 37 57
- 0.874424 2 4 tcp 1040 ------- 2 1.0 4.0 37 57
r 0.876512 2 1 ack 40 ------- 2 4.0 1.0 34 87
+ 0.876512 1 2 tcp 1040 ------- 2 1.0 4.0 54 90
- 0.877744 1 2 tcp 1040 ------- 2 1.0 4.0 39 60
r 0.877768 2 4 tcp 1040 ------- 2 1.0 4.0 36 55
+ 0.877768 4 2 ack 40 ------- 2 4.0 1.0 36 91
- 0.877768 4 2 ack 40 ------- 2 4.0 1.0 36 91
r 0.879512 4 2 ack 40 ------- 2 4.0 1.0 35 89
+ 0.879512 2 1 ack 40 ------- 2 4.0 1.0 35 89
- 0.879512 2 1 ack 40 ------- 2 4.0 1.0 35 89
r 0.882744 1 2 tcp 1040 ------- 2 1.0 4.0 38 58
+ 0.882744 2 4 tcp 1040 ------- 2 1.0 4.0 38 58
- 0.882744 2 4 tcp 1040 ------- 2 1.0 4.0 38 58
r 0.884832 2 1 ack 40 ------- 2 4.0 1.0 35 89
+ 0.884832 1 2 tcp 1040 ------- 2 1.0 4.0 55 92
- 0.886064 1 2 tcp 1040 ------- 2 1.0 4.0 40 62
r 0.886088 2 4 tcp 1040 ------- 2 1.0 4.0 37 57
+ 0.886088 4 2 ack 40 ------- 2 4.0 1.0 37 93
- 0.886088 4 2 ack 40 ------- 2 4.0 1.0 37 93
r 0.887832 4 2 ack 40 ------- 2 4.0 1.0 36 91
+ 0.887832 2 1 ack 40 ------- 2 4.0 1.0 36 91
- 0.887832 2 1 ack 40 ------- 2 4.0 1.0 36 91
r 0.891064 1 2 tcp 1040 ------- 2 1.0 4.0 39 60
+ 0.891064 2 4 tcp 1040 ------- 2 1.0 4.0 39 60
- 0.891064 2 4 tcp 1040 ------- 2 1.0 4.0 39 60
r 0.893152 2 1 ack 40 ------- 2 4.0 1.0 36 91
+ 0.893152 1 2 tcp 1040 ------- 2 1.0 4.0 56 94
- 0.894384 1 2 tcp 1040 ------- 2 1.0 4.0 41 64
r 0.894408 2 4 tcp 1040 ------- 2 1.0 4.0 38 58
+ 0.894408 4 2 ack 40 ------- 2 4.0 1.0 38 95
- 0.894408 4 2 ack 40 ------- 2 4.0 1.0 38 95
r 0.896152 4 2 ack 40 ------- 2 4.0 1.0 37 93
+ 0.896152 2 1 ack 40 ------- 2 4.0 1.0 37 93
- 0.896152 2 1 ack 40 ------- 2 4.0 1.0 37 93
r 0.899384 1 2 tcp 1040 ------- 2 1.0 4.0 40 62
+ 0.899384 2 4 tcp 1040 ------- 2 1.0 4.0 40 62
- 0.899384 2 4 tcp 1040 ------- 2 1.0 4.0 40 62
r 0.901472 2 1 ack 40 ------- 2 4.0 1.0 37 93
+ 0.901472 1 2 tcp 1040 ------- 2 1.0 4.0 57 96
- 0.902704 1 2 tcp 1040 ------- 2 1.0 4.0 42 66
r 0.902728 2 4 tcp 1040 ------- 2 1.0 4.0 39 60
+ 0.902728 4 2 ack 40 ------- 2 4.0 1.0 39 97
- 0.902728 4 2 ack 40 ------- 2 4.0 1.0 39 97
r 0.904472 4 2 ack 40 ------- 2 4.0 1.0 38 95
+ 0.904472 2 1 ack 40 ------- 2 4.0 1.0 38 95
- 0.904472 2 1 ack 40 ------- 2 4.0 1.0 38 95
r 0.907704 1 2 tcp 1040 ------- 2 1.0 4.0 41 64
+ 0.907704 2 4 tcp 1040 ------- 2 1.0 4.0 41 64
- 0.907704 2 4 tcp 1040 ------- 2 1.0 4.0 41 64
r 0.909792 2 1 ack 40 ------- 2 4.0 1.0 38 95
+ 0.909792 1 2 tcp 1040 ------- 2 1.0 4.0 58 98
- 0.911024 1 2 tcp 1040 ------- 2 1.0 4.0 43 68
r 0.911048 2 4 tcp 1040 ------- 2 1.0 4.0 40 62
+ 0.911048 4 2 ack 40 ------- 2 4.0 1.0 40 99
- 0.911048 4 2 ack 40 ------- 2 4.0 1.0 40 99
r 0.912792 4 2 ack 40 ------- 2 4.0 1.0 39 97
+ 0.912792 2 1 ack 40 ------- 2 4.0 1.0 39 97
- 0.912792 2 1 ack 40 ------- 2 4.0 1.0 39 97
r 0.916024 1 2 tcp 1040 ------- 2 1.0 4.0 42 66
+ 0.916024 2 4 tcp 1040 ------- 2 1.0 4.0 42 66
- 0.916024 2 4 tcp 1040 ------- 2 1.0 4.0 42 66
r 0.918112 2 1 ack 40 ------- 2 4.0 1.0 39 97
+ 0.918112 1 2 tcp 1040 ------- 2 1.0 4.0 59 100
- 0.919344 1 2 tcp 1040 ------- 2 1.0 4.0 44 70
r 0.919368 2 4 tcp 1040 ------- 2 1.0 4.0 41 64
+ 0.919368 4 2 ack 40 ------- 2 4.0 1.0 41 101
- 0.919368 4 2 ack 40 ------- 2 4.0 1.0 41 101
r 0.921112 4 2 ack 40 ------- 2 4.0 1.0 40 99
+ 0.921112 2 1 ack 40 ------- 2 4.0 1.0 40 99
- 0.921112 2 1 ack 40 ------- 2 4.0 1.0 40 99
r 0.924344 1 2 tcp 1040 ------- 2 1.0 4.0 43 68
+ 0.924344 2 4 tcp 1040 ------- 2 1.0 4.0 43 68
- 0.924344 2 4 tcp 1040 ------- 2 1.0 4.0 43 68
r 0.926432 2 1 ack 40 ------- 2 4.0 1.0 40 99
+ 0.926432 1 2 tcp 1040 ------- 2 1.0 4.0 60 102
- 0.927664 1 2 tcp 1040 ------- 2 1.0 4.0 45 72
r 0.927688 2 4 tcp 1040 ------- 2 1.0 4.0 42 66
+ 0.927688 4 2 ack 40 ------- 2 4.0 1.0 42 103
- 0.927688 4 2 ack 40 ------- 2 4.0 1.0 42 103
r 0.929432 4 2 ack 40 ------- 2 4.0 1.0 41 101
+ 0.929432 2 1 ack 40 ------- 2 4.0 1.0 41 101
- 0.929432 2 1 ack 40 ------- 2 4.0 1.0 41 101
r 0.932664 1 2 tcp 1040 ------- 2 1.0 4.0 44 70
+ 0.932664 2 4 tcp 1040 ------- 2 1.0 4.0 44 70
- 0.932664 2 4 tcp 1040 ------- 2 1.0 4.0 44 70
r 0.934752 2 1 ack 40 ------- 2 4.0 1.0 41 101
+ 0.934752 1 2 tcp 1040 ------- 2 1.0 4.0 61 104
- 0.935984 1 2 tcp 1040 ------- 2 1.0 4.0 46 74
r 0.936008 2 4 tcp 1040 ------- 2 1.0 4.0 43 68
+ 0.936008 4 2 ack 40 ------- 2 4.0 1.0 43 105
- 0.936008 4 2 ack 40 ------- 2 4.0 1.0 43 105
r 0.937752 4 2 ack 40 ------- 2 4.0 1.0 42 103
+ 0.937752 2 1 ack 40 ------- 2 4.0 1.0 42 103
- 0.937752 2 1 ack 40 ------- 2 4.0 1.0 42 103
r 0.940984 1 2 tcp 1040 ------- 2 1.0 4.0 45 72
+ 0.940984 2 4 tcp 1040 ------- 2 1.0 4.0 45 72
- 0.940984 2 4 tcp 1040 ------- 2 1.0 4.0 45 72
r 0.943072 2 1 ack 40 ------- 2 4.0 1.0 42 103
+ 0.943072 1 2 tcp 1040 ------- 2 1.0 4.0 62 106
- 0.944304 1 2 tcp 1040 ------- 2 1.0 4.0 47 76
r 0.944328 2 4 tcp 1040 ------- 2 1.0 4.0 44 70
+ 0.944328 4 2 ack 40 ------- 2 4.0 1.0 44 107
- 0.944328 4 2 ack 40 ------- 2 4.0 1.0 44 107
r 0.946072 4 2 ack 40 ------- 2 4.0 1.0 43 105
+ 0.946072 2 1 ack 40 ------- 2 4.0 1.0 43 105
- 0.946072 2 1 ack 40 ------- 2 4.0 1.0 43 105
r 0.949304 1 2 tcp 1040 ------- 2 1.0 4.0 46 74
+ 0.949304 2 4 tcp 1040 ------- 2 1.0 4.0 46 74
- 0.949304 2 4 tcp 1040 ------- 2 1.0 4.0 46 74
r 0.951392 2 1 ack 40 ------- 2 4.0 1.0 43 105
+ 0.951392 1 2 tcp 1040 ------- 2 1.0 4.0 63 108
- 0.952624 1 2 tcp 1040 ------- 2 1.0 4.0 48 78
r 0.952648 2 4 tcp 1040 ------- 2 1.0 4.0 45 72
+ 0.952648 4 2 ack 40 ------- 2 4.0 1.0 45 109
- 0.952648 4 2 ack 40 ------- 2 4.0 1.0 45 109
r 0.954392 4 2 ack 40 ------- 2 4.0 1.0 44 107
+ 0.954392 2 1 ack 40 ------- 2 4.0 1.0 44 107
- 0.954392 2 1 ack 40 ------- 2 4.0 1.0 44 107
r 0.957624 1 2 tcp 1040 ------- 2 1.0 4.0 47 76
+ 0.957624 2 4 tcp 1040 ------- 2 1.0 4.0 47 76
- 0.957624 2 4 tcp 1040 ------- 2 1.0 4.0 47 76
r 0.959712 2 1 ack 40 ------- 2 4.0 1.0 44 107
+ 0.959712 1 2 tcp 1040 ------- 2 1.0 4.0 64 110
- 0.960944 1 2 tcp 1040 ------- 2 1.0 4.0 49 80
r 0.960968 2 4 tcp 1040 ------- 2 1.0 4.0 46 74
+ 0.960968 4 2 ack 40 ------- 2 4.0 1.0 46 111
- 0.960968 4 2 ack 40 ------- 2 4.0 1.0 46 111
r 0.962712 4 2 ack 40 ------- 2 4.0 1.0 45 109
+ 0.962712 2 1 ack 40 ------- 2 4.0 1.0 45 109
- 0.962712 2 1 ack 40 ------- 2 4.0 1.0 45 109
r 0.965944 1 2 tcp 1040 ------- 2 1.0 4.0 48 78
+ 0.965944 2 4 tcp 1040 ------- 2 1.0 4.0 48 78
- 0.965944 2 4 tcp 1040 ------- 2 1.0 4.0 48 78
r 0.968032 2 1 ack 40 ------- 2 4.0 1.0 45 109
+ 0.968032 1 2 tcp 1040 ------- 2 1.0 4.0 65 112
- 0.969264 1 2 tcp 1040 ------- 2 1.0 4.0 50 82
r 0.969288 2 4 tcp 1040 ------- 2 1.0 4.0 47 76
+ 0.969288 4 2 ack 40 ------- 2 4.0 1.0 47 113
- 0.969288 4 2 ack 40 ------- 2 4.0 1.0 47 113
r 0.971032 4 2 ack 40 ------- 2 4.0 1.0 46 111
+ 0.971032 2 1 ack 40 ------- 2 4.0 1.0 46 111
- 0.971032 2 1 ack 40 ------- 2 4.0 1.0 46 111
r 0.974264 1 2 tcp 1040 ------- 2 1.0 4.0 49 80
+ 0.974264 2 4 tcp 1040 ------- 2 1.0 4.0 49 80
- 0.974264 2 4 tcp 1040 ------- 2 1.0 4.0 49 80
r 0.976352 2 1 ack 40 ------- 2 4.0 1.0 46 111
+ 0.976352 1 2 tcp 1040 ------- 2 1.0 4.0 66 114
- 0.977584 1 2 tcp 1040 ------- 2 1.0 4.0 51 84
r 0.977608 2 4 tcp 1040 ------- 2 1.0 4.0 48 78
+ 0.977608 4 2 ack 40 ------- 2 4.0 1.0 48 115
- 0.977608 4 2 ack 40 ------- 2 4.0 1.0 48 115
r 0.979352 4 2 ack 40 ------- 2 4.0 1.0 47 113
+ 0.979352 2 1 ack 40 ------- 2 4.0 1.0 47 113
- 0.979352 2 1 ack 40 ------- 2 4.0 1.0 47 113
r 0.982584 1 2 tcp 1040 ------- 2 1.0 4.0 50 82
+ 0.982584 2 4 tcp 1040 ------- 2 1.0 4.0 50 82
- 0.982584 2 4 tcp 1040 ------- 2 1.0 4.0 50 82
r 0.984672 2 1 ack 40 ------- 2 4.0 1.0 47 113
+ 0.984672 1 2 tcp 1040 ------- 2 1.0 4.0 67 116
- 0.985904 1 2 tcp 1040 ------- 2 1.0 4.0 52 86
r 0.985928 2 4 tcp 1040 ------- 2 1.0 4.0 49 80
+ 0.985928 4 2 ack 40 ------- 2 4.0 1.0 49 117
- 0.985928 4 2 ack 40 ------- 2 4.0 1.0 49 117
r 0.987672 4 2 ack 40 ------- 2 4.0 1.0 48 115
+ 0.987672 2 1 ack 40 ------- 2 4.0 1.0 48 115
- 0.987672 2 1 ack 40 ------- 2 4.0 1.0 48 115
r 0.990904 1 2 tcp 1040 ------- 2 1.0 4.0 51 84
+ 0.990904 2 4 tcp 1040 ------- 2 1.0 4.0 51 84
- 0.990904 2 4 tcp 1040 ------- 2 1.0 4.0 51 84
r 0.992992 2 1 ack 40 ------- 2 4.0 1.0 48 115
+ 0.992992 1 2 tcp 1040 ------- 2 1.0 4.0 68 118
- 0.994224 1 2 tcp 1040 ------- 2 1.0 4.0 53 88
r 0.994248 2 4 tcp 1040 ------- 2 1.0 4.0 50 82
+ 0.994248 4 2 ack 40 ------- 2 4.0 1.0 50 119
- 0.994248 4 2 ack 40 ------- 2 4.0 1.0 50 119
r 0.995992 4 2 ack 40 ------- 2 4.0 1.0 49 117
+ 0.995992 2 1 ack 40 ------- 2 4.0 1.0 49 117
- 0.995992 2 1 ack 40 ------- 2 4.0 1.0 49 117
r 0.999224 1 2 tcp 1040 ------- 2 1.0 4.0 52 86
+ 0.999224 2 4 tcp 1040 ------- 2 1.0 4.0 52 86
- 0.999224 2 4 tcp 1040 ------- 2 1.0 4.0 52 86
r 1.001312 2 1 ack 40 ------- 2 4.0 1.0 49 117
+ 1.001312 1 2 tcp 1040 ------- 2 1.0 4.0 69 120
- 1.002544 1 2 tcp 1040 ------- 2 1.0 4.0 54 90
r 1.002568 2 4 tcp 1040 ------- 2 1.0 4.0 51 84
+ 1.002568 4 2 ack 40 ------- 2 4.0 1.0 51 121
- 1.002568 4 2 ack 40 ------- 2 4.0 1.0 51 121